
*************** JDFTx 1.5.0  ***************

Start date and time: Fri Dec 25 09:29:55 2020
Executable jdftx_gpu with command-line: -i Charged.in -o Charged.out
Running on hosts (process indices):  amax (0-4)
Divided in process groups (process indices):  0 (0)  1 (1)  2 (2)  3 (3)  4 (4)
gpuInit: Found compatible cuda device 0 'Tesla K80'
gpuInit: Found compatible cuda device 1 'Tesla K80'
gpuInit: Found compatible cuda device 2 'Tesla K80'
gpuInit: Found compatible cuda device 3 'Tesla K80'
gpuInit: Found compatible cuda device 4 'Tesla K80'
gpuInit: Selected device 0
Resource initialization completed at t[s]:      2.99
Run totals: 5 processes, 24 threads, 5 GPUs


Input parsed successfully to the following command list (including defaults):

basis kpoint-dependent
cache-projectors no
coords-type Lattice
core-overlap-check none
coulomb-interaction Slab 001
coulomb-truncation-embed 0.5 0.5 0.5
davidson-band-ratio 1.1
dump End State
dump-name NbTe2.$VAR
elec-cutoff 20
elec-eigen-algo Davidson
elec-ex-corr gga-PBE
elec-initial-charge 0.500000
elec-initial-magnetization 2.000000 no
elec-smearing Gauss 0.0073499
electronic-minimize  \
	dirUpdateScheme      FletcherReeves \
	linminMethod         DirUpdateRecommended \
	nIterations          500 \
	history              15 \
	knormThreshold       0 \
	energyDiffThreshold  1e-08 \
	nEnergyDiff          2 \
	alphaTstart          1 \
	alphaTmin            1e-10 \
	updateTestStepSize   yes \
	alphaTreduceFactor   0.1 \
	alphaTincreaseFactor 3 \
	nAlphaAdjustMax      3 \
	wolfeEnergy          0.0001 \
	wolfeGradient        0.9 \
	fdTest               no
exchange-regularization WignerSeitzTruncated
fluid LinearPCM 298.000000 1.013250
fluid-anion F- 1 MeanFieldLJ \
	epsBulk 1 \
	pMol 0 \
	epsInf 1 \
	Pvap 0 \
	sigmaBulk 0 \
	Rvdw 2.24877 \
	Res 0 \
	tauNuc 343133
fluid-cation Na+ 1 MeanFieldLJ \
	epsBulk 1 \
	pMol 0 \
	epsInf 1 \
	Pvap 0 \
	sigmaBulk 0 \
	Rvdw 2.19208 \
	Res 0 \
	tauNuc 343133
fluid-ex-corr lda-TF lda-PZ
fluid-gummel-loop 10 1.000000e-05
fluid-minimize  \
	dirUpdateScheme      PolakRibiere \
	linminMethod         DirUpdateRecommended \
	nIterations          400 \
	history              15 \
	knormThreshold       1e-11 \
	energyDiffThreshold  0 \
	nEnergyDiff          2 \
	alphaTstart          1 \
	alphaTmin            1e-10 \
	updateTestStepSize   yes \
	alphaTreduceFactor   0.1 \
	alphaTincreaseFactor 3 \
	nAlphaAdjustMax      6 \
	wolfeEnergy          0.0001 \
	wolfeGradient        0.9 \
	fdTest               no
fluid-solvent H2O 55.338 ScalarEOS \
	epsBulk 78.4 \
	pMol 0.92466 \
	epsInf 1.77 \
	Pvap 1.06736e-10 \
	sigmaBulk 4.62e-05 \
	Rvdw 2.61727 \
	Res 1.42 \
	tauNuc 343133 \
	poleEl 15 7 1
forces-output-coords Positions
initial-state NbTe2.$VAR
ion C   0.666666490000000   0.333333553000000   0.566297304495419 1
ion C   0.333333522000000   0.666666477000000   0.433742116200332 1
ion Ti   0.000000000000000   0.000000000000000   0.500030186254096 1
ion Ti   0.333333124000000   0.666666927000000   0.618558614194110 1
ion Ti   0.666666794000000   0.333333148000000   0.381441385805890 1
ion-species GBRV/$ID_pbe.uspp
ion-width Ecut
ionic-minimize  \
	dirUpdateScheme      L-BFGS \
	linminMethod         DirUpdateRecommended \
	nIterations          500 \
	history              15 \
	knormThreshold       0.0001 \
	energyDiffThreshold  1e-06 \
	nEnergyDiff          2 \
	alphaTstart          1 \
	alphaTmin            1e-10 \
	updateTestStepSize   yes \
	alphaTreduceFactor   0.1 \
	alphaTincreaseFactor 3 \
	nAlphaAdjustMax      3 \
	wolfeEnergy          0.0001 \
	wolfeGradient        0.9 \
	fdTest               no
kpoint   0.000000000000   0.000000000000   0.000000000000  1.00000000000000
kpoint-folding 19 19 1 
latt-move-scale 1 1 1
latt-scale 1.88973 1.88973 1.88973 
lattice Triclinic 3.05976 3.05976 19.6623 90 90 120
lattice-minimize  \
	dirUpdateScheme      L-BFGS \
	linminMethod         DirUpdateRecommended \
	nIterations          0 \
	history              15 \
	knormThreshold       0 \
	energyDiffThreshold  1e-06 \
	nEnergyDiff          2 \
	alphaTstart          1 \
	alphaTmin            1e-10 \
	updateTestStepSize   yes \
	alphaTreduceFactor   0.1 \
	alphaTincreaseFactor 3 \
	nAlphaAdjustMax      3 \
	wolfeEnergy          0.0001 \
	wolfeGradient        0.9 \
	fdTest               no
lcao-params -1 1e-06 0.0073499
pcm-variant CANDLE
spintype z-spin
subspace-rotation-factor 1 yes
symmetries automatic
symmetry-threshold 0.0001



---------- Setting up symmetries ----------

Found 24 point-group symmetries of the bravais lattice
Found 6 space-group symmetries with basis
Applied RMS atom displacement 1.75613e-06 bohrs to make symmetries exact.

---------- Initializing the Grid ----------
R = 
[    5.78211   -2.89105          0  ]
[          0    5.00745          0  ]
[          0          0    37.1563  ]
unit cell volume = 1075.81
G =
[    1.08666   0.627383         -0  ]
[          0    1.25477          0  ]
[          0         -0   0.169102  ]
Minimum fftbox size, Smin = [  24  24  152  ]
Chosen fftbox size, S = [  24  24  160  ]

---------- Exchange Correlation functional ----------
Initalized PBE GGA exchange.
Initalized PBE GGA correlation.

---------- Setting up pseudopotentials ----------
Width of ionic core gaussian charges (only for fluid interactions / plotting) set to 0.397384

Reading pseudopotential file '/home/guoxy/vasp/jdftx-1.5.0/build/pseudopotentials/GBRV/c_pbe.uspp':
  Title: C.  Created by USPP 7.3.6 on 3-2-2014
  Reference state energy: -5.406344.  4 valence electrons in orbitals:
    |200>  occupation: 2  eigenvalue: -0.504890
    |210>  occupation: 2  eigenvalue: -0.194356
  lMax: 1  lLocal: 2  QijEcut: 5
  4 projectors sampled on a log grid with 503 points:
    l: 0  eig: -0.504890  rCut: 1.3
    l: 0  eig: 0.000000  rCut: 1.3
    l: 1  eig: -0.194357  rCut: 1.3
    l: 1  eig: 0.000000  rCut: 1.3
  Partial core density with radius 1.1
  Transforming core density to a uniform radial grid of dG=0.02 with 1474 points.
  Transforming local potential to a uniform radial grid of dG=0.02 with 1474 points.
  Transforming nonlocal projectors to a uniform radial grid of dG=0.02 with 432 points.
  Transforming density augmentations to a uniform radial grid of dG=0.02 with 1474 points.
  Transforming atomic orbitals to a uniform radial grid of dG=0.02 with 432 points.
  Core radius for overlap checks: 1.30 bohrs.

Reading pseudopotential file '/home/guoxy/vasp/jdftx-1.5.0/build/pseudopotentials/GBRV/ti_pbe.uspp':
  Title: Ti.  Created by USPP 7.3.6 on 31-3-15
  Reference state energy: -59.020943.  12 valence electrons in orbitals:
    |300>  occupation: 2  eigenvalue: -2.777623
    |310>  occupation: 6  eigenvalue: -1.894596
    |400>  occupation: 2  eigenvalue: -0.438610
    |320>  occupation: 1  eigenvalue: -0.583119
  lMax: 2  lLocal: 3  QijEcut: 6
  6 projectors sampled on a log grid with 597 points:
    l: 0  eig: -2.777624  rCut: 1.8
    l: 0  eig: -0.438611  rCut: 1.8
    l: 1  eig: -1.894596  rCut: 1.8
    l: 1  eig: 0.500000  rCut: 1.8
    l: 2  eig: -0.583118  rCut: 1.8
    l: 2  eig: 0.150000  rCut: 1.8
  Partial core density with radius 0.8
  Transforming core density to a uniform radial grid of dG=0.02 with 1474 points.
  Transforming local potential to a uniform radial grid of dG=0.02 with 1474 points.
  Transforming nonlocal projectors to a uniform radial grid of dG=0.02 with 432 points.
  Transforming density augmentations to a uniform radial grid of dG=0.02 with 1474 points.
  Transforming atomic orbitals to a uniform radial grid of dG=0.02 with 432 points.
  Core radius for overlap checks: 1.80 bohrs.

Initialized 2 species with 5 total atoms.

Folded 1 k-points by 19x19x1 to 361 k-points.

---------- Setting up k-points, bands, fillings ----------
Adding inversion symmetry to k-mesh for non-inversion-symmetric unit cell.
Reduced to 40 k-points under symmetry. 
Computing the number of bands and number of electrons
Calculating initial fillings.
nElectrons:  44.500000   nBands: 38   nStates: 80

----- Setting up reduced wavefunction bases (one per k-point) -----
average nbasis = 4596.474 , ideal nbasis = 4595.939

---------- Setting up coulomb interaction ----------
Fluid mode embedding: using embedded box, but periodic Coulomb kernel.
(Fluid response is responsible for (approximate) separation between periodic images.)
Setting up double-sized grid for truncated Coulomb potentials:
R = 
[    5.78211   -2.89105          0  ]
[          0    5.00745          0  ]
[          0          0    74.3126  ]
unit cell volume = 2151.62
G =
[    1.08666   0.627383         -0  ]
[          0    1.25477          0  ]
[          0         -0  0.0845508  ]
Chosen fftbox size, S = [  24  24  320  ]
Integer grid location selected as the embedding center:
   Grid: [  12  12  80  ]
   Lattice: [  0.5  0.5  0.5  ]
   Cartesian: [  1.44553  2.50373  18.5781  ]
Constructing Wigner-Seitz cell: 8 faces (6 quadrilaterals, 2 hexagons)
Range-separation parameter for embedded mesh potentials due to point charges: 0.619224 bohrs.

Initializing van der Waals corrections
	NOTE: vdW corrections apply only for interactions with fluid.
	 C:  C6:   30.35 Eh-a0^6  R0: 2.744 a0
	Ti:  C6:  187.33 Eh-a0^6  R0: 2.952 a0

---------- Setting up ewald sum ----------
Optimum gaussian width for ewald sums = 3.938554 bohr.
Real space sum over 1805 unit cells with max indices [  9  9  2  ]
Reciprocal space sum over 4941 terms with max indices [  4  4  30  ]

---------- Allocating electronic variables ----------
Initializing wave functions:  linear combination of atomic orbitals
C pseudo-atom occupations:   s ( 2 )  p ( 2 )
Ti pseudo-atom occupations:   s ( 2 0 )  p ( 6 )  d ( 4 )
	FillingsUpdate:  mu: +0.601267998  nElectrons: 44.500000  magneticMoment: [ Abs: 1.51015  Tot: +1.50968 ]
LCAOMinimize: Iter:   0  F: -153.6767638343938245  |grad|_K:  1.129e-01  alpha:  1.000e+00
LCAOMinimize: 	Step increased F by 2.442694e+02, reducing alpha to 4.318052e-02.
LCAOMinimize: 	Step increased F by 3.104114e+01, reducing alpha to 4.318052e-03.
	FillingsUpdate:  mu: -0.647557760  nElectrons: 44.500000  magneticMoment: [ Abs: 1.56523  Tot: +1.56521 ]
LCAOMinimize: Iter:   1  F: -158.4596411230755848  |grad|_K:  5.273e-02  alpha:  4.318e-03  linmin: -1.941e-01  cgtest:  7.518e-01  t[s]:     75.86
LCAOMinimize: Encountered beta<0, resetting CG.
LCAOMinimize: 	Wrong curvature in test step, increasing alphaT to 1.295416e-02.
	FillingsUpdate:  mu: -0.876211566  nElectrons: 44.500000  magneticMoment: [ Abs: 1.53392  Tot: +1.53391 ]
LCAOMinimize: Iter:   2  F: -160.0336079752550233  |grad|_K:  5.779e-02  alpha: -2.784e-02  linmin: -1.943e-01  cgtest:  6.388e-01  t[s]:     94.38
LCAOMinimize: 	Step increased F by 2.472810e+02, reducing alpha to 3.627467e-02.
LCAOMinimize: 	Step increased F by 3.513465e+01, reducing alpha to 3.627467e-03.
	FillingsUpdate:  mu: -0.036836267  nElectrons: 44.500000  magneticMoment: [ Abs: 1.81896  Tot: +1.81894 ]
LCAOMinimize: Iter:   3  F: -166.0604033727348678  |grad|_K:  8.973e-02  alpha:  3.627e-03  linmin: -3.366e-01  cgtest:  3.403e-01  t[s]:    132.32
	FillingsUpdate:  mu: +0.504251723  nElectrons: 44.500000  magneticMoment: [ Abs: 1.99760  Tot: +1.99759 ]
LCAOMinimize: Iter:   4  F: -168.9123928682434439  |grad|_K:  6.061e-02  alpha:  8.650e-04  linmin: -1.582e-02  cgtest:  4.035e-01  t[s]:    147.78
	FillingsUpdate:  mu: +0.749253447  nElectrons: 44.500000  magneticMoment: [ Abs: 2.03995  Tot: +2.03994 ]
LCAOMinimize: Iter:   5  F: -169.3153064474348639  |grad|_K:  6.753e-02  alpha:  1.693e-03  linmin:  5.990e-04  cgtest:  8.776e-01  t[s]:    163.26
LCAOMinimize: 	Predicted alpha/alphaT>3.000000, increasing alphaT to 5.079307e-03.
	FillingsUpdate:  mu: +1.129155534  nElectrons: 44.500000  magneticMoment: [ Abs: 2.10185  Tot: +2.10184 ]
LCAOMinimize: Iter:   6  F: -171.1202349752913108  |grad|_K:  2.465e-02  alpha:  6.648e-03  linmin:  4.090e-02  cgtest: -2.719e-01  t[s]:    185.52
LCAOMinimize: 	Predicted alpha/alphaT>3.000000, increasing alphaT to 1.994290e-02.
LCAOMinimize: 	Predicted alpha/alphaT>3.000000, increasing alphaT to 5.982869e-02.
LCAOMinimize: 	Predicted alpha/alphaT>3.000000, increasing alphaT to 1.794861e-01.
	FillingsUpdate:  mu: +1.571401610  nElectrons: 44.500000  magneticMoment: [ Abs: 0.36782  Tot: +0.35974 ]
LCAOMinimize: Iter:   7  F: -182.9798596669955941  |grad|_K:  2.304e-02  alpha:  2.770e-01  linmin:  1.734e-02  cgtest: -1.238e-01  t[s]:    215.15
LCAOMinimize: 	Step increased F by 3.616998e-01, reducing alpha to 1.160238e-02.
	FillingsUpdate:  mu: +1.368984759  nElectrons: 44.500000  magneticMoment: [ Abs: 0.36128  Tot: +0.35381 ]
LCAOMinimize: Iter:   8  F: -183.5172860709919291  |grad|_K:  1.861e-02  alpha:  1.160e-02  linmin: -1.012e-01  cgtest:  1.016e+00  t[s]:    246.15
LCAOMinimize: Encountered beta<0, resetting CG.
LCAOMinimize: 	Predicted alpha/alphaT>3.000000, increasing alphaT to 3.480714e-02.
	FillingsUpdate:  mu: +0.758934204  nElectrons: 44.500000  magneticMoment: [ Abs: 0.53908  Tot: +0.51493 ]
LCAOMinimize: Iter:   9  F: -184.9842847670866490  |grad|_K:  1.762e-02  alpha:  8.740e-02  linmin:  6.270e-02  cgtest: -9.490e-02  t[s]:    269.58
	FillingsUpdate:  mu: +0.632436336  nElectrons: 44.500000  magneticMoment: [ Abs: 0.59272  Tot: +0.56883 ]
LCAOMinimize: Iter:  10  F: -185.3789431677173809  |grad|_K:  6.625e-03  alpha:  2.195e-02  linmin: -1.052e-01  cgtest:  8.795e-01  t[s]:    287.21
LCAOMinimize: Encountered beta<0, resetting CG.
	FillingsUpdate:  mu: +0.689395415  nElectrons: 44.500000  magneticMoment: [ Abs: 0.57938  Tot: +0.55207 ]
LCAOMinimize: Iter:  11  F: -185.4484112903771802  |grad|_K:  4.830e-03  alpha:  2.590e-02  linmin: -7.140e-03  cgtest: -9.440e-03  t[s]:    306.04
LCAOMinimize: 	Predicted alpha/alphaT>3.000000, increasing alphaT to 7.768722e-02.
LCAOMinimize: 	Predicted alpha/alphaT>3.000000, increasing alphaT to 2.330617e-01.
	FillingsUpdate:  mu: +0.731731062  nElectrons: 44.500000  magneticMoment: [ Abs: 0.51793  Tot: +0.47311 ]
LCAOMinimize: Iter:  12  F: -185.6314501989738801  |grad|_K:  3.030e-03  alpha:  7.405e-02  linmin: -1.659e-01  cgtest:  8.930e-01  t[s]:    335.28
LCAOMinimize: Encountered beta<0, resetting CG.
	FillingsUpdate:  mu: +0.707397319  nElectrons: 44.500000  magneticMoment: [ Abs: 0.50758  Tot: +0.45872 ]
LCAOMinimize: Iter:  13  F: -185.6559534246582928  |grad|_K:  3.331e-03  alpha:  4.421e-02  linmin:  5.661e-04  cgtest: -2.545e-02  t[s]:    352.20
	FillingsUpdate:  mu: +0.600541715  nElectrons: 44.500000  magneticMoment: [ Abs: 0.45723  Tot: +0.38406 ]
LCAOMinimize: Iter:  14  F: -185.7310719976377413  |grad|_K:  7.292e-04  alpha:  1.301e-01  linmin:  2.380e-01  cgtest: -8.132e-02  t[s]:    370.13
	FillingsUpdate:  mu: +0.605559288  nElectrons: 44.500000  magneticMoment: [ Abs: 0.44781  Tot: +0.37434 ]
LCAOMinimize: Iter:  15  F: -185.7321792335852706  |grad|_K:  8.477e-04  alpha:  5.138e-02  linmin: -3.699e-03  cgtest:  3.244e-01  t[s]:    390.79
	FillingsUpdate:  mu: +0.637017717  nElectrons: 44.500000  magneticMoment: [ Abs: 0.40980  Tot: +0.33577 ]
LCAOMinimize: Iter:  16  F: -185.7366159885310708  |grad|_K:  9.861e-04  alpha:  1.029e-01  linmin:  7.092e-03  cgtest: -4.982e-01  t[s]:    406.71
	FillingsUpdate:  mu: +0.669415676  nElectrons: 44.500000  magneticMoment: [ Abs: 0.37662  Tot: +0.30187 ]
LCAOMinimize: Iter:  17  F: -185.7388018162817787  |grad|_K:  2.670e-04  alpha:  3.769e-02  linmin: -1.371e-02  cgtest:  4.948e-01  t[s]:    423.11
LCAOMinimize: Encountered beta<0, resetting CG.
	FillingsUpdate:  mu: +0.654038803  nElectrons: 44.500000  magneticMoment: [ Abs: 0.36634  Tot: +0.29045 ]
LCAOMinimize: Iter:  18  F: -185.7391283445125225  |grad|_K:  3.919e-04  alpha:  7.552e-02  linmin:  1.013e-03  cgtest: -1.292e-02  t[s]:    439.77
	FillingsUpdate:  mu: +0.630059824  nElectrons: 44.500000  magneticMoment: [ Abs: 0.34404  Tot: +0.26576 ]
LCAOMinimize: Iter:  19  F: -185.7396022425499496  |grad|_K:  1.557e-04  alpha:  5.047e-02  linmin: -8.053e-06  cgtest:  2.193e-01  t[s]:    458.36
	FillingsUpdate:  mu: +0.637196379  nElectrons: 44.500000  magneticMoment: [ Abs: 0.32273  Tot: +0.24411 ]
LCAOMinimize: Iter:  20  F: -185.7397905570246053  |grad|_K:  2.131e-04  alpha:  1.287e-01  linmin:  1.700e-03  cgtest: -1.291e-02  t[s]:    475.90
	FillingsUpdate:  mu: +0.641198217  nElectrons: 44.500000  magneticMoment: [ Abs: 0.30672  Tot: +0.22790 ]
LCAOMinimize: Iter:  21  F: -185.7398964734984190  |grad|_K:  1.830e-04  alpha:  3.827e-02  linmin: -1.564e-03  cgtest:  5.042e-02  t[s]:    492.17
LCAOMinimize: 	Predicted alpha/alphaT>3.000000, increasing alphaT to 1.148119e-01.
	FillingsUpdate:  mu: +0.644638569  nElectrons: 44.500000  magneticMoment: [ Abs: 0.24229  Tot: +0.16190 ]
LCAOMinimize: Iter:  22  F: -185.7402332498083126  |grad|_K:  7.939e-05  alpha:  1.649e-01  linmin:  5.941e-03  cgtest: -2.263e-01  t[s]:    515.06
	FillingsUpdate:  mu: +0.643143556  nElectrons: 44.500000  magneticMoment: [ Abs: 0.22517  Tot: +0.14442 ]
LCAOMinimize: Iter:  23  F: -185.7402665717635841  |grad|_K:  1.241e-04  alpha:  9.026e-02  linmin: -1.306e-05  cgtest:  3.219e-02  t[s]:    533.34
	FillingsUpdate:  mu: +0.640697115  nElectrons: 44.500000  magneticMoment: [ Abs: 0.20421  Tot: +0.12262 ]
LCAOMinimize: Iter:  24  F: -185.7403055393308478  |grad|_K:  3.746e-05  alpha:  4.151e-02  linmin: -1.568e-04  cgtest: -1.221e-01  t[s]:    551.08
	FillingsUpdate:  mu: +0.637377099  nElectrons: 44.500000  magneticMoment: [ Abs: 0.19117  Tot: +0.10919 ]
LCAOMinimize: Iter:  25  F: -185.7403156527948056  |grad|_K:  2.344e-05  alpha:  1.185e-01  linmin:  8.410e-04  cgtest: -1.899e-03  t[s]:    568.14
LCAOMinimize: 	Predicted alpha/alphaT>3.000000, increasing alphaT to 3.555955e-01.
	FillingsUpdate:  mu: +0.639212677  nElectrons: 44.500000  magneticMoment: [ Abs: 0.16579  Tot: +0.04214 ]
LCAOMinimize: Iter:  26  F: -185.7403419724909952  |grad|_K:  4.408e-05  alpha:  7.882e-01  linmin: -3.306e-04  cgtest:  1.384e-02  t[s]:    592.40
	FillingsUpdate:  mu: +0.639350172  nElectrons: 44.500000  magneticMoment: [ Abs: 0.16714  Tot: +0.03521 ]
LCAOMinimize: Iter:  27  F: -185.7403445897868153  |grad|_K:  1.773e-05  alpha:  2.315e-02  linmin:  1.618e-02  cgtest: -1.395e-01  t[s]:    610.47
LCAOMinimize: 	Predicted alpha/alphaT>3.000000, increasing alphaT to 6.944808e-02.
	FillingsUpdate:  mu: +0.639238389  nElectrons: 44.500000  magneticMoment: [ Abs: 0.16876  Tot: +0.02796 ]
LCAOMinimize: Iter:  28  F: -185.7403465871895492  |grad|_K:  1.327e-05  alpha:  1.114e-01  linmin:  3.388e-04  cgtest:  1.710e-01  t[s]:    633.86
	FillingsUpdate:  mu: +0.639693424  nElectrons: 44.500000  magneticMoment: [ Abs: 0.16956  Tot: +0.02491 ]
LCAOMinimize: Iter:  29  F: -185.7403479015593462  |grad|_K:  2.290e-05  alpha:  1.228e-01  linmin:  1.194e-05  cgtest: -1.113e-02  t[s]:    651.56
	FillingsUpdate:  mu: +0.640032870  nElectrons: 44.500000  magneticMoment: [ Abs: 0.17038  Tot: +0.02239 ]
LCAOMinimize: Iter:  30  F: -185.7403490654606344  |grad|_K:  1.030e-05  alpha:  3.660e-02  linmin:  5.303e-04  cgtest: -8.737e-03  t[s]:    669.76
LCAOMinimize: None of the convergence criteria satisfied after 30 iterations.
----- createFluidSolver() ----- (Fluid-side solver setup)
   Initializing fluid molecule 'H2O'
     Initializing site 'O'
       Electron density: proportional to exp(-r/0.36935)*erfc((r-0.51523)/0.36823) with norm 6.826
       Charge density: gaussian nuclear width 0.478731 with net site charge 0.826
       Polarizability: cuspless exponential with width 0.32 and norm 3.73
       Hard sphere radius: 2.57003 bohrs
       Positions in reference frame:
         [ +0.000000 +0.000000 +0.000000 ]
     Initializing site 'H'
       Electron density: proportional to exp(-r/0.34641)*erfc((r-0)/0.390882) with norm 0.587
       Charge density: gaussian nuclear width 0.377945 with net site charge -0.413
       Polarizability: cuspless exponential with width 0.39 and norm 3.3
       Positions in reference frame:
         [ +0.000000 -1.441945 +1.122523 ]
         [ +0.000000 +1.441945 +1.122523 ]
     Net charge: 0   dipole magnitude: 0.927204
     Initializing spherical shell mfKernel with radius 2.61727 Bohr
     deltaS corrections:
       site 'O': -7.54299
       site 'H': -6.83917
   Initializing fluid molecule 'Na+'
     Initializing site 'Na'
       Electron density: proportional to exp(-r/0.19682)*erfc((r-0.71491)/0.41314) with norm 8.1383
       Charge density: gaussian nuclear width 0.365347 with net site charge -1
       Hard sphere radius: 1.86327 bohrs
       Positions in reference frame:
         [ +0.000000 +0.000000 +0.000000 ]
     Net charge: -1   dipole magnitude: 0
     Initializing gaussian mfKernel with width: 1.55004 Bohr
     deltaS corrections:
       site 'Na': -22.3555
   Initializing fluid molecule 'F-'
     Initializing site 'F'
       Electron density: proportional to exp(-r/0.38886)*erfc((r-0)/0.438782) with norm 8
       Charge density: gaussian nuclear width 0.374796 with net site charge 1
       Hard sphere radius: 2.39995 bohrs
       Positions in reference frame:
         [ +0.000000 +0.000000 +0.000000 ]
     Net charge: 1   dipole magnitude: 0
     Initializing gaussian mfKernel with width: 1.59012 Bohr
     deltaS corrections:
       site 'F': -9.04335

Correction to mu due to finite nuclear width = -0.0202902
   Cavity determined by nc: 0.00142 and sigma: 0.707107
   Nonlocal vdW cavity from gaussian model electron density with norm = 8 and sigma = 0.993594 bohr
   Charge asymmetry in cavity with sensitivity pCavity = 36.5 e-bohr/Eh
   Electrostatic cavity expanded by eta = 1.46 bohrs
   Weighted density cavitation model constrained by Nbulk: 0.0049383 bohr^-3, Pvap: 3.14029 kPa, Rvdw: 2.61727 bohr and sigmaBulk: 4.62e-05 Eh/bohr^2 at T: 298 K.
   Weighted density dispersion model using vdW pair potentials with single solvent site with sqrtC6eff: 0.77 SI.


---- Citations for features of the code used in this run ----

   Software package:
      R. Sundararaman, K. Letchworth-Weaver, K.A. Schwarz, D. Gunceler, Y. Ozhabes and T.A. Arias, 'JDFTx: software for joint density-functional theory', SoftwareX 6, 278 (2017)

   gga-PBE exchange-correlation functional:
      J.P. Perdew, K. Burke and M. Ernzerhof, Phys. Rev. Lett. 77, 3865 (1996)

   Pseudopotentials:
      KF Garrity, JW Bennett, KM Rabe and D Vanderbilt, Comput. Mater. Sci. 81, 446 (2014)

   Truncated Coulomb potentials:
      R. Sundararaman and T.A. Arias, Phys. Rev. B 87, 165122 (2013)

   Van der Waals correction pair-potentials:
      S. Grimme, J. Comput. Chem. 27, 1787 (2006)

   Charge-asymmetric nonlocally-determined local-electric (CANDLE) solvation model:
      R. Sundararaman and W.A. Goddard III, J. Chem. Phys. 142, 064107 (2015)

   Total energy minimization with Auxiliary Hamiltonian:
      C. Freysoldt, S. Boeck, and J. Neugebauer, Phys. Rev. B 79, 241103(R) (2009)

This list may not be complete. Please suggest additional citations or
report any other bugs at https://github.com/shankar1729/jdftx/issues

Initialization completed successfully at t[s]:    673.19

Fluid solver invoked on fresh (partially random / LCAO) wavefunctions
Running a vacuum solve first:

-------- Initial electronic minimization -----------
	FillingsUpdate:  mu: +0.640032872  nElectrons: 44.500000  magneticMoment: [ Abs: 0.17038  Tot: +0.02239 ]
ElecMinimize: Iter:   0  F: -185.740349065462397  |grad|_K:  2.300e-04  alpha:  1.000e+00
	FillingsUpdate:  mu: +0.473610918  nElectrons: 44.500000  magneticMoment: [ Abs: 0.16967  Tot: +0.02501 ]
	SubspaceRotationAdjust: set factor to 0.999
ElecMinimize: Iter:   1  F: -186.025443997569965  |grad|_K:  1.535e-04  alpha:  3.892e-01  linmin:  5.987e-05  t[s]:    705.40
	FillingsUpdate:  mu: +0.707697284  nElectrons: 44.500000  magneticMoment: [ Abs: 0.14475  Tot: +0.00856 ]
	SubspaceRotationAdjust: set factor to 0.739
ElecMinimize: Iter:   2  F: -186.152351273043422  |grad|_K:  1.461e-04  alpha:  3.889e-01  linmin: -3.349e-04  t[s]:    724.33
	FillingsUpdate:  mu: +0.638978670  nElectrons: 44.500000  magneticMoment: [ Abs: 0.14458  Tot: +0.00513 ]
	SubspaceRotationAdjust: set factor to 0.44
ElecMinimize: Iter:   3  F: -186.174167709711440  |grad|_K:  1.857e-04  alpha:  6.085e-02  linmin: -3.851e-04  t[s]:    742.96
	FillingsUpdate:  mu: +0.483823485  nElectrons: 44.500000  magneticMoment: [ Abs: 0.15116  Tot: +0.01032 ]
	SubspaceRotationAdjust: set factor to 0.28
ElecMinimize: Iter:   4  F: -186.216429154174847  |grad|_K:  1.321e-04  alpha:  8.005e-02  linmin:  2.373e-04  t[s]:    762.17
	FillingsUpdate:  mu: +0.166899664  nElectrons: 44.500000  magneticMoment: [ Abs: 0.14845  Tot: +0.01081 ]
	SubspaceRotationAdjust: set factor to 0.175
ElecMinimize: Iter:   5  F: -186.248594614626569  |grad|_K:  1.405e-04  alpha:  1.996e-01  linmin:  2.057e-03  t[s]:    781.37
	FillingsUpdate:  mu: +0.126824301  nElectrons: 44.500000  magneticMoment: [ Abs: 0.14934  Tot: +0.00764 ]
	SubspaceRotationAdjust: set factor to 0.123
	SubspaceRotationAdjust: resetting CG because factor has changed by 0.12307
ElecMinimize: 	State modified externally: resetting search direction.
ElecMinimize: Iter:   6  F: -186.251974318351614  |grad|_K:  1.014e-04  alpha:  3.124e-02
ElecMinimize: 	Predicted alpha/alphaT>3.000000, increasing alphaT to 9.371860e-02.
ElecMinimize: 	Predicted alpha/alphaT>3.000000, increasing alphaT to 2.811558e-01.
	FillingsUpdate:  mu: +0.274233247  nElectrons: 44.500000  magneticMoment: [ Abs: 0.13863  Tot: +0.00764 ]
	SubspaceRotationAdjust: set factor to 0.0745
ElecMinimize: Iter:   7  F: -186.300565305154123  |grad|_K:  8.153e-05  alpha:  3.353e-01  linmin: -9.035e-04  t[s]:    848.72
	FillingsUpdate:  mu: +0.377706890  nElectrons: 44.500000  magneticMoment: [ Abs: 0.13114  Tot: +0.00483 ]
	SubspaceRotationAdjust: set factor to 0.0404
ElecMinimize: Iter:   8  F: -186.316804081007319  |grad|_K:  3.598e-05  alpha:  1.712e-01  linmin:  8.553e-05  t[s]:    868.56
ElecMinimize: 	Predicted alpha/alphaT>3.000000, increasing alphaT to 5.135890e-01.
	FillingsUpdate:  mu: +0.396418685  nElectrons: 44.500000  magneticMoment: [ Abs: 0.12431  Tot: +0.00866 ]
	SubspaceRotationAdjust: set factor to 0.048
ElecMinimize: Iter:   9  F: -186.332537303656039  |grad|_K:  3.456e-05  alpha:  8.650e-01  linmin: -1.645e-04  t[s]:    897.82
	FillingsUpdate:  mu: +0.358675107  nElectrons: 44.500000  magneticMoment: [ Abs: 0.11775  Tot: +0.01169 ]
	SubspaceRotationAdjust: set factor to 0.0499
ElecMinimize: Iter:  10  F: -186.344296842388530  |grad|_K:  3.176e-05  alpha:  6.866e-01  linmin: -1.707e-05  t[s]:    917.46
	FillingsUpdate:  mu: +0.309613521  nElectrons: 44.500000  magneticMoment: [ Abs: 0.11037  Tot: +0.01357 ]
	SubspaceRotationAdjust: set factor to 0.0465
ElecMinimize: Iter:  11  F: -186.354385794927254  |grad|_K:  2.690e-05  alpha:  7.128e-01  linmin:  1.764e-04  t[s]:    938.00
	FillingsUpdate:  mu: +0.281638103  nElectrons: 44.500000  magneticMoment: [ Abs: 0.10787  Tot: +0.01826 ]
	SubspaceRotationAdjust: set factor to 0.0449
ElecMinimize: Iter:  12  F: -186.359416461734554  |grad|_K:  2.248e-05  alpha:  5.029e-01  linmin: -3.932e-06  t[s]:    958.65
	FillingsUpdate:  mu: +0.237235172  nElectrons: 44.500000  magneticMoment: [ Abs: 0.10610  Tot: +0.02407 ]
	SubspaceRotationAdjust: set factor to 0.0505
ElecMinimize: Iter:  13  F: -186.364998751123579  |grad|_K:  2.040e-05  alpha:  7.977e-01  linmin:  1.715e-04  t[s]:    979.44
	FillingsUpdate:  mu: +0.210585546  nElectrons: 44.500000  magneticMoment: [ Abs: 0.10531  Tot: +0.02646 ]
	SubspaceRotationAdjust: set factor to 0.0505
ElecMinimize: Iter:  14  F: -186.369157165183253  |grad|_K:  2.254e-05  alpha:  7.311e-01  linmin:  1.078e-04  t[s]:    999.29
	FillingsUpdate:  mu: +0.195573472  nElectrons: 44.500000  magneticMoment: [ Abs: 0.10467  Tot: +0.02731 ]
	SubspaceRotationAdjust: set factor to 0.0533
ElecMinimize: Iter:  15  F: -186.372214041533596  |grad|_K:  1.779e-05  alpha:  4.300e-01  linmin: -2.977e-05  t[s]:   1020.01
	FillingsUpdate:  mu: +0.200439127  nElectrons: 44.500000  magneticMoment: [ Abs: 0.10347  Tot: +0.02721 ]
	SubspaceRotationAdjust: set factor to 0.0673
ElecMinimize: Iter:  16  F: -186.375113463549866  |grad|_K:  1.728e-05  alpha:  6.500e-01  linmin:  1.971e-05  t[s]:   1043.77
	FillingsUpdate:  mu: +0.208805604  nElectrons: 44.500000  magneticMoment: [ Abs: 0.10232  Tot: +0.02685 ]
	SubspaceRotationAdjust: set factor to 0.0643
ElecMinimize: Iter:  17  F: -186.376753988979573  |grad|_K:  1.566e-05  alpha:  3.942e-01  linmin: -2.865e-06  t[s]:   1064.00
	FillingsUpdate:  mu: +0.218489202  nElectrons: 44.500000  magneticMoment: [ Abs: 0.10081  Tot: +0.02687 ]
	SubspaceRotationAdjust: set factor to 0.0636
ElecMinimize: Iter:  18  F: -186.378348916647269  |grad|_K:  1.328e-05  alpha:  4.613e-01  linmin: -5.531e-05  t[s]:   1083.30
	FillingsUpdate:  mu: +0.221602918  nElectrons: 44.500000  magneticMoment: [ Abs: 0.09855  Tot: +0.02675 ]
	SubspaceRotationAdjust: set factor to 0.0709
ElecMinimize: Iter:  19  F: -186.379854174114087  |grad|_K:  1.106e-05  alpha:  5.950e-01  linmin: -3.912e-05  t[s]:   1103.99
	FillingsUpdate:  mu: +0.218912853  nElectrons: 44.500000  magneticMoment: [ Abs: 0.09651  Tot: +0.02621 ]
	SubspaceRotationAdjust: set factor to 0.0667
ElecMinimize: Iter:  20  F: -186.380788845610226  |grad|_K:  1.163e-05  alpha:  5.381e-01  linmin:  1.626e-06  t[s]:   1126.34
	FillingsUpdate:  mu: +0.216667536  nElectrons: 44.500000  magneticMoment: [ Abs: 0.09491  Tot: +0.02542 ]
	SubspaceRotationAdjust: set factor to 0.0518
ElecMinimize: Iter:  21  F: -186.381443920676304  |grad|_K:  1.022e-05  alpha:  3.432e-01  linmin: -3.067e-06  t[s]:   1145.54
	FillingsUpdate:  mu: +0.218751703  nElectrons: 44.500000  magneticMoment: [ Abs: 0.09245  Tot: +0.02354 ]
	SubspaceRotationAdjust: set factor to 0.056
ElecMinimize: Iter:  22  F: -186.382205178370072  |grad|_K:  8.211e-06  alpha:  5.177e-01  linmin: -2.552e-05  t[s]:   1165.91
	FillingsUpdate:  mu: +0.229973227  nElectrons: 44.500000  magneticMoment: [ Abs: 0.08742  Tot: +0.01767 ]
	SubspaceRotationAdjust: set factor to 0.0562
ElecMinimize: Iter:  23  F: -186.382815977885627  |grad|_K:  8.181e-06  alpha:  6.562e-01  linmin:  3.153e-04  t[s]:   1186.62
	FillingsUpdate:  mu: +0.237030424  nElectrons: 44.500000  magneticMoment: [ Abs: 0.08743  Tot: +0.01260 ]
	SubspaceRotationAdjust: set factor to 0.0563
ElecMinimize: Iter:  24  F: -186.383066143423378  |grad|_K:  6.860e-06  alpha:  2.746e-01  linmin: -1.568e-04  t[s]:   1206.78
	FillingsUpdate:  mu: +0.241639325  nElectrons: 44.500000  magneticMoment: [ Abs: 0.09450  Tot: +0.00570 ]
	SubspaceRotationAdjust: set factor to 0.0679
ElecMinimize: Iter:  25  F: -186.383355360392500  |grad|_K:  7.384e-06  alpha:  4.256e-01  linmin:  4.738e-05  t[s]:   1228.09
	FillingsUpdate:  mu: +0.241382801  nElectrons: 44.500000  magneticMoment: [ Abs: 0.10057  Tot: -0.00006 ]
	SubspaceRotationAdjust: set factor to 0.0788
ElecMinimize: Iter:  26  F: -186.383581464256565  |grad|_K:  6.881e-06  alpha:  3.022e-01  linmin: -8.402e-06  t[s]:   1249.38
	FillingsUpdate:  mu: +0.232325796  nElectrons: 44.500000  magneticMoment: [ Abs: 0.10757  Tot: -0.00665 ]
	SubspaceRotationAdjust: set factor to 0.107
ElecMinimize: Iter:  27  F: -186.383841342168694  |grad|_K:  6.457e-06  alpha:  3.868e-01  linmin: -1.851e-04  t[s]:   1269.56
	FillingsUpdate:  mu: +0.221947113  nElectrons: 44.500000  magneticMoment: [ Abs: 0.11215  Tot: -0.01101 ]
	SubspaceRotationAdjust: set factor to 0.103
ElecMinimize: Iter:  28  F: -186.383993339161975  |grad|_K:  6.225e-06  alpha:  2.237e-01  linmin: -5.681e-04  t[s]:   1288.58
	FillingsUpdate:  mu: +0.209735404  nElectrons: 44.500000  magneticMoment: [ Abs: 0.11645  Tot: -0.01497 ]
	SubspaceRotationAdjust: set factor to 0.126
ElecMinimize: Iter:  29  F: -186.384108153033026  |grad|_K:  5.883e-06  alpha:  1.874e-01  linmin:  1.277e-03  t[s]:   1307.02
	FillingsUpdate:  mu: +0.204105928  nElectrons: 44.500000  magneticMoment: [ Abs: 0.11836  Tot: -0.01663 ]
	SubspaceRotationAdjust: set factor to 0.117
ElecMinimize: Iter:  30  F: -186.384154935607171  |grad|_K:  6.458e-06  alpha:  9.623e-02  linmin: -9.780e-04  t[s]:   1324.29
	FillingsUpdate:  mu: +0.198691793  nElectrons: 44.500000  magneticMoment: [ Abs: 0.12026  Tot: -0.01812 ]
	SubspaceRotationAdjust: set factor to 0.0854
ElecMinimize: Iter:  31  F: -186.384215310872747  |grad|_K:  7.420e-06  alpha:  9.896e-02  linmin:  1.454e-03  t[s]:   1343.38
	FillingsUpdate:  mu: +0.195088755  nElectrons: 44.500000  magneticMoment: [ Abs: 0.12122  Tot: -0.01867 ]
	SubspaceRotationAdjust: set factor to 0.0659
ElecMinimize: Iter:  32  F: -186.384263582202351  |grad|_K:  7.177e-06  alpha:  6.433e-02  linmin: -5.444e-05  t[s]:   1362.60
	FillingsUpdate:  mu: +0.192583018  nElectrons: 44.500000  magneticMoment: [ Abs: 0.12153  Tot: -0.01847 ]
	SubspaceRotationAdjust: set factor to 0.0557
ElecMinimize: Iter:  33  F: -186.384316804216496  |grad|_K:  6.938e-06  alpha:  7.372e-02  linmin:  3.168e-04  t[s]:   1382.84
	FillingsUpdate:  mu: +0.191748540  nElectrons: 44.500000  magneticMoment: [ Abs: 0.12124  Tot: -0.01758 ]
	SubspaceRotationAdjust: set factor to 0.0492
ElecMinimize: Iter:  34  F: -186.384373442916711  |grad|_K:  7.027e-06  alpha:  8.505e-02  linmin: -1.799e-04  t[s]:   1404.36
	FillingsUpdate:  mu: +0.193565708  nElectrons: 44.500000  magneticMoment: [ Abs: 0.12057  Tot: -0.01610 ]
	SubspaceRotationAdjust: set factor to 0.0478
ElecMinimize: Iter:  35  F: -186.384447371913865  |grad|_K:  7.056e-06  alpha:  1.049e-01  linmin: -4.962e-04  t[s]:   1423.62
	FillingsUpdate:  mu: +0.199510842  nElectrons: 44.500000  magneticMoment: [ Abs: 0.12032  Tot: -0.01491 ]
	SubspaceRotationAdjust: set factor to 0.0654
ElecMinimize: Iter:  36  F: -186.384529371672414  |grad|_K:  6.704e-06  alpha:  1.147e-01  linmin:  4.822e-04  t[s]:   1443.82
	FillingsUpdate:  mu: +0.206092960  nElectrons: 44.500000  magneticMoment: [ Abs: 0.12073  Tot: -0.01467 ]
	SubspaceRotationAdjust: set factor to 0.0844
ElecMinimize: Iter:  37  F: -186.384583299785049  |grad|_K:  6.509e-06  alpha:  8.565e-02  linmin:  2.030e-04  t[s]:   1465.02
	FillingsUpdate:  mu: +0.212165490  nElectrons: 44.500000  magneticMoment: [ Abs: 0.12128  Tot: -0.01474 ]
	SubspaceRotationAdjust: set factor to 0.104
ElecMinimize: Iter:  38  F: -186.384622040117279  |grad|_K:  6.324e-06  alpha:  6.487e-02  linmin:  1.560e-04  t[s]:   1486.80
	FillingsUpdate:  mu: +0.217571155  nElectrons: 44.500000  magneticMoment: [ Abs: 0.12185  Tot: -0.01489 ]
	SubspaceRotationAdjust: set factor to 0.129
ElecMinimize: Iter:  39  F: -186.384653056093128  |grad|_K:  6.297e-06  alpha:  5.549e-02  linmin:  1.616e-04  t[s]:   1507.01
	FillingsUpdate:  mu: +0.222024192  nElectrons: 44.500000  magneticMoment: [ Abs: 0.12241  Tot: -0.01507 ]
	SubspaceRotationAdjust: set factor to 0.166
ElecMinimize: Iter:  40  F: -186.384679673557059  |grad|_K:  6.310e-06  alpha:  4.824e-02  linmin:  7.783e-05  t[s]:   1526.99
	FillingsUpdate:  mu: +0.225155642  nElectrons: 44.500000  magneticMoment: [ Abs: 0.12297  Tot: -0.01525 ]
	SubspaceRotationAdjust: set factor to 0.176
ElecMinimize: Iter:  41  F: -186.384703202312721  |grad|_K:  6.412e-06  alpha:  4.236e-02  linmin:  2.477e-05  t[s]:   1549.25
	FillingsUpdate:  mu: +0.226760520  nElectrons: 44.500000  magneticMoment: [ Abs: 0.12357  Tot: -0.01547 ]
	SubspaceRotationAdjust: set factor to 0.169
ElecMinimize: Iter:  42  F: -186.384725570033595  |grad|_K:  6.520e-06  alpha:  3.889e-02  linmin:  2.395e-06  t[s]:   1569.66
	FillingsUpdate:  mu: +0.226766906  nElectrons: 44.500000  magneticMoment: [ Abs: 0.12433  Tot: -0.01578 ]
	SubspaceRotationAdjust: set factor to 0.163
ElecMinimize: Iter:  43  F: -186.384748837118906  |grad|_K:  6.519e-06  alpha:  3.903e-02  linmin: -3.523e-06  t[s]:   1590.13
	FillingsUpdate:  mu: +0.225261297  nElectrons: 44.500000  magneticMoment: [ Abs: 0.12521  Tot: -0.01617 ]
	SubspaceRotationAdjust: set factor to 0.187
ElecMinimize: Iter:  44  F: -186.384771733202427  |grad|_K:  6.229e-06  alpha:  3.837e-02  linmin:  2.008e-06  t[s]:   1609.38
	FillingsUpdate:  mu: +0.222737618  nElectrons: 44.500000  magneticMoment: [ Abs: 0.12615  Tot: -0.01662 ]
	SubspaceRotationAdjust: set factor to 0.248
ElecMinimize: Iter:  45  F: -186.384792306280872  |grad|_K:  6.151e-06  alpha:  3.781e-02  linmin:  9.681e-06  t[s]:   1630.55
	FillingsUpdate:  mu: +0.219526377  nElectrons: 44.500000  magneticMoment: [ Abs: 0.12716  Tot: -0.01713 ]
	SubspaceRotationAdjust: set factor to 0.281
ElecMinimize: Iter:  46  F: -186.384811638592140  |grad|_K:  6.629e-06  alpha:  3.654e-02  linmin:  1.527e-05  t[s]:   1650.14
	FillingsUpdate:  mu: +0.215905892  nElectrons: 44.500000  magneticMoment: [ Abs: 0.12828  Tot: -0.01770 ]
	SubspaceRotationAdjust: set factor to 0.279
ElecMinimize: Iter:  47  F: -186.384831410050623  |grad|_K:  7.048e-06  alpha:  3.218e-02  linmin:  1.587e-05  t[s]:   1671.53
	FillingsUpdate:  mu: +0.212768327  nElectrons: 44.500000  magneticMoment: [ Abs: 0.12941  Tot: -0.01825 ]
	SubspaceRotationAdjust: set factor to 0.275
ElecMinimize: Iter:  48  F: -186.384850408729847  |grad|_K:  6.992e-06  alpha:  2.737e-02  linmin:  1.217e-05  t[s]:   1693.88
	FillingsUpdate:  mu: +0.210674795  nElectrons: 44.500000  magneticMoment: [ Abs: 0.13046  Tot: -0.01871 ]
	SubspaceRotationAdjust: set factor to 0.259
ElecMinimize: Iter:  49  F: -186.384868519934798  |grad|_K:  7.044e-06  alpha:  2.656e-02  linmin:  1.092e-05  t[s]:   1713.87
	FillingsUpdate:  mu: +0.209790868  nElectrons: 44.500000  magneticMoment: [ Abs: 0.13146  Tot: -0.01905 ]
	SubspaceRotationAdjust: set factor to 0.243
ElecMinimize: Iter:  50  F: -186.384887016011930  |grad|_K:  7.025e-06  alpha:  2.673e-02  linmin:  5.813e-06  t[s]:   1732.67
	FillingsUpdate:  mu: +0.210184515  nElectrons: 44.500000  magneticMoment: [ Abs: 0.13232  Tot: -0.01922 ]
	SubspaceRotationAdjust: set factor to 0.261
ElecMinimize: Iter:  51  F: -186.384904991111597  |grad|_K:  6.604e-06  alpha:  2.604e-02  linmin:  1.412e-06  t[s]:   1753.18
	FillingsUpdate:  mu: +0.211606684  nElectrons: 44.500000  magneticMoment: [ Abs: 0.13295  Tot: -0.01919 ]
	SubspaceRotationAdjust: set factor to 0.328
ElecMinimize: Iter:  52  F: -186.384920954623340  |grad|_K:  6.317e-06  alpha:  2.612e-02  linmin: -2.106e-07  t[s]:   1774.34
	FillingsUpdate:  mu: +0.213833818  nElectrons: 44.500000  magneticMoment: [ Abs: 0.13339  Tot: -0.01895 ]
	SubspaceRotationAdjust: set factor to 0.369
ElecMinimize: Iter:  53  F: -186.384935945990605  |grad|_K:  6.654e-06  alpha:  2.678e-02  linmin: -3.738e-07  t[s]:   1794.04
	FillingsUpdate:  mu: +0.216772848  nElectrons: 44.500000  magneticMoment: [ Abs: 0.13369  Tot: -0.01847 ]
	SubspaceRotationAdjust: set factor to 0.355
ElecMinimize: Iter:  54  F: -186.384952151913041  |grad|_K:  7.180e-06  alpha:  2.608e-02  linmin: -2.616e-07  t[s]:   1814.74
	FillingsUpdate:  mu: +0.219774971  nElectrons: 44.500000  magneticMoment: [ Abs: 0.13388  Tot: -0.01774 ]
	SubspaceRotationAdjust: set factor to 0.332
ElecMinimize: Iter:  55  F: -186.384969682694873  |grad|_K:  7.311e-06  alpha:  2.424e-02  linmin: -4.800e-07  t[s]:   1836.76
	FillingsUpdate:  mu: +0.222120934  nElectrons: 44.500000  magneticMoment: [ Abs: 0.13399  Tot: -0.01680 ]
	SubspaceRotationAdjust: set factor to 0.294
ElecMinimize: Iter:  56  F: -186.384988505639996  |grad|_K:  7.521e-06  alpha:  2.509e-02  linmin: -8.803e-07  t[s]:   1856.35
	FillingsUpdate:  mu: +0.223334409  nElectrons: 44.500000  magneticMoment: [ Abs: 0.13406  Tot: -0.01564 ]
	SubspaceRotationAdjust: set factor to 0.267
ElecMinimize: Iter:  57  F: -186.385009364422388  |grad|_K:  7.435e-06  alpha:  2.627e-02  linmin: -2.508e-07  t[s]:   1875.40
	FillingsUpdate:  mu: +0.223071833  nElectrons: 44.500000  magneticMoment: [ Abs: 0.13409  Tot: -0.01444 ]
	SubspaceRotationAdjust: set factor to 0.304
ElecMinimize: Iter:  58  F: -186.385029083745280  |grad|_K:  6.694e-06  alpha:  2.542e-02  linmin:  1.144e-06  t[s]:   1894.16
	FillingsUpdate:  mu: +0.221697760  nElectrons: 44.500000  magneticMoment: [ Abs: 0.13408  Tot: -0.01338 ]
	SubspaceRotationAdjust: set factor to 0.425
ElecMinimize: Iter:  59  F: -186.385044866620404  |grad|_K:  6.138e-06  alpha:  2.513e-02  linmin:  1.813e-06  t[s]:   1912.80
	FillingsUpdate:  mu: +0.219601940  nElectrons: 44.500000  magneticMoment: [ Abs: 0.13400  Tot: -0.01239 ]
	SubspaceRotationAdjust: set factor to 0.537
ElecMinimize: Iter:  60  F: -186.385057909494776  |grad|_K:  6.123e-06  alpha:  2.471e-02  linmin:  1.883e-06  t[s]:   1932.02
	FillingsUpdate:  mu: +0.217044162  nElectrons: 44.500000  magneticMoment: [ Abs: 0.13381  Tot: -0.01131 ]
	SubspaceRotationAdjust: set factor to 0.674
ElecMinimize: Iter:  61  F: -186.385069825632570  |grad|_K:  6.173e-06  alpha:  2.269e-02  linmin:  1.893e-06  t[s]:   1951.81
	FillingsUpdate:  mu: +0.214659678  nElectrons: 44.500000  magneticMoment: [ Abs: 0.13346  Tot: -0.01004 ]
	SubspaceRotationAdjust: set factor to 0.645
ElecMinimize: Iter:  62  F: -186.385080999408700  |grad|_K:  6.658e-06  alpha:  2.092e-02  linmin:  2.639e-06  t[s]:   1973.10
	FillingsUpdate:  mu: +0.212661228  nElectrons: 44.500000  magneticMoment: [ Abs: 0.13278  Tot: -0.00815 ]
	SubspaceRotationAdjust: set factor to 0.494
ElecMinimize: Iter:  63  F: -186.385094424477217  |grad|_K:  7.487e-06  alpha:  2.164e-02  linmin:  6.958e-06  t[s]:   1994.04
	FillingsUpdate:  mu: +0.211631222  nElectrons: 44.500000  magneticMoment: [ Abs: 0.13182  Tot: -0.00571 ]
	SubspaceRotationAdjust: set factor to 0.415
ElecMinimize: Iter:  64  F: -186.385109593649219  |grad|_K:  6.818e-06  alpha:  1.936e-02  linmin:  4.894e-06  t[s]:   2013.84
	FillingsUpdate:  mu: +0.211867420  nElectrons: 44.500000  magneticMoment: [ Abs: 0.13088  Tot: -0.00342 ]
	SubspaceRotationAdjust: set factor to 0.442
ElecMinimize: Iter:  65  F: -186.385122751325099  |grad|_K:  6.084e-06  alpha:  2.023e-02  linmin: -3.461e-06  t[s]:   2034.62
	FillingsUpdate:  mu: +0.213063169  nElectrons: 44.500000  magneticMoment: [ Abs: 0.13000  Tot: -0.00122 ]
	SubspaceRotationAdjust: set factor to 0.555
ElecMinimize: Iter:  66  F: -186.385134941130048  |grad|_K:  5.918e-06  alpha:  2.340e-02  linmin: -1.921e-05  t[s]:   2056.24
	FillingsUpdate:  mu: +0.214840573  nElectrons: 44.500000  magneticMoment: [ Abs: 0.12923  Tot: +0.00084 ]
	SubspaceRotationAdjust: set factor to 0.73
ElecMinimize: Iter:  67  F: -186.385146241994249  |grad|_K:  5.570e-06  alpha:  2.282e-02  linmin: -2.600e-05  t[s]:   2075.27
	FillingsUpdate:  mu: +0.216706550  nElectrons: 44.500000  magneticMoment: [ Abs: 0.12864  Tot: +0.00263 ]
	SubspaceRotationAdjust: set factor to 0.829
ElecMinimize: Iter:  68  F: -186.385155975563578  |grad|_K:  5.675e-06  alpha:  2.216e-02  linmin: -3.512e-05  t[s]:   2095.72
	FillingsUpdate:  mu: +0.218762492  nElectrons: 44.500000  magneticMoment: [ Abs: 0.12812  Tot: +0.00485 ]
	SubspaceRotationAdjust: set factor to 0.859
ElecMinimize: Iter:  69  F: -186.385168425559726  |grad|_K:  6.548e-06  alpha:  2.716e-02  linmin: -1.108e-04  t[s]:   2116.27
	FillingsUpdate:  mu: +0.219867061  nElectrons: 44.500000  magneticMoment: [ Abs: 0.12789  Tot: +0.00721 ]
	SubspaceRotationAdjust: set factor to 0.808
ElecMinimize: Iter:  70  F: -186.385182968613094  |grad|_K:  6.650e-06  alpha:  2.376e-02  linmin: -3.492e-05  t[s]:   2137.96
	FillingsUpdate:  mu: +0.219273122  nElectrons: 44.500000  magneticMoment: [ Abs: 0.12814  Tot: +0.00942 ]
	SubspaceRotationAdjust: set factor to 0.76
ElecMinimize: Iter:  71  F: -186.385198495881866  |grad|_K:  6.351e-06  alpha:  2.490e-02  linmin:  1.313e-06  t[s]:   2158.66
	FillingsUpdate:  mu: +0.217863679  nElectrons: 44.500000  magneticMoment: [ Abs: 0.12864  Tot: +0.01080 ]
	SubspaceRotationAdjust: set factor to 1.1
	SubspaceRotationAdjust: resetting CG because factor has changed by 8.96158
ElecMinimize: 	State modified externally: resetting search direction.
ElecMinimize: Iter:  72  F: -186.385209559976886  |grad|_K:  5.561e-06  alpha:  1.957e-02
ElecMinimize: 	Predicted alpha/alphaT>3.000000, increasing alphaT to 5.870065e-02.
ElecMinimize: 	Predicted alpha/alphaT>3.000000, increasing alphaT to 1.761020e-01.
	FillingsUpdate:  mu: +0.209854460  nElectrons: 44.500000  magneticMoment: [ Abs: 0.12951  Tot: +0.01186 ]
	SubspaceRotationAdjust: set factor to 0.588
ElecMinimize: Iter:  73  F: -186.385308007716503  |grad|_K:  1.321e-05  alpha:  2.278e-01  linmin:  9.758e-05  t[s]:   2224.90
	FillingsUpdate:  mu: +0.209000822  nElectrons: 44.500000  magneticMoment: [ Abs: 0.13020  Tot: +0.01226 ]
	SubspaceRotationAdjust: set factor to 0.332
ElecMinimize: Iter:  74  F: -186.385358350194707  |grad|_K:  9.141e-06  alpha:  2.059e-02  linmin: -7.140e-05  t[s]:   2245.57
ElecMinimize: 	Predicted alpha/alphaT>3.000000, increasing alphaT to 6.176780e-02.
	FillingsUpdate:  mu: +0.218674889  nElectrons: 44.500000  magneticMoment: [ Abs: 0.13254  Tot: +0.01373 ]
	SubspaceRotationAdjust: set factor to 0.49
ElecMinimize: Iter:  75  F: -186.385503930430303  |grad|_K:  3.819e-06  alpha:  1.210e-01  linmin: -1.464e-04  t[s]:   2273.56
	FillingsUpdate:  mu: +0.218604693  nElectrons: 44.500000  magneticMoment: [ Abs: 0.13303  Tot: +0.01420 ]
	SubspaceRotationAdjust: set factor to 0.287
ElecMinimize: Iter:  76  F: -186.385527679922603  |grad|_K:  6.739e-06  alpha:  1.125e-01  linmin:  1.610e-06  t[s]:   2292.96
	FillingsUpdate:  mu: +0.216254704  nElectrons: 44.500000  magneticMoment: [ Abs: 0.13438  Tot: +0.01536 ]
	SubspaceRotationAdjust: set factor to 0.201
ElecMinimize: Iter:  77  F: -186.385581798277229  |grad|_K:  2.687e-06  alpha:  8.481e-02  linmin:  6.606e-06  t[s]:   2313.45
ElecMinimize: 	Predicted alpha/alphaT>3.000000, increasing alphaT to 2.544355e-01.
	FillingsUpdate:  mu: +0.212744684  nElectrons: 44.500000  magneticMoment: [ Abs: 0.13646  Tot: +0.01668 ]
	SubspaceRotationAdjust: set factor to 0.158
ElecMinimize: Iter:  78  F: -186.385627710240328  |grad|_K:  2.512e-06  alpha:  4.548e-01  linmin:  4.358e-05  t[s]:   2342.68
	FillingsUpdate:  mu: +0.214648627  nElectrons: 44.500000  magneticMoment: [ Abs: 0.13751  Tot: +0.01724 ]
	SubspaceRotationAdjust: set factor to 0.0981
	SubspaceRotationAdjust: resetting CG because factor has changed by 0.0889711
ElecMinimize: 	State modified externally: resetting search direction.
ElecMinimize: Iter:  79  F: -186.385645005056745  |grad|_K:  2.383e-06  alpha:  1.958e-01
	FillingsUpdate:  mu: +0.215192362  nElectrons: 44.500000  magneticMoment: [ Abs: 0.13761  Tot: +0.01729 ]
	SubspaceRotationAdjust: set factor to 0.103
ElecMinimize: Iter:  80  F: -186.385655514825146  |grad|_K:  1.314e-06  alpha:  1.319e-01  linmin: -4.428e-07  t[s]:   2396.10
ElecMinimize: 	Predicted alpha/alphaT>3.000000, increasing alphaT to 3.957296e-01.
	FillingsUpdate:  mu: +0.217046068  nElectrons: 44.500000  magneticMoment: [ Abs: 0.13807  Tot: +0.01740 ]
	SubspaceRotationAdjust: set factor to 0.0865
ElecMinimize: Iter:  81  F: -186.385666780650581  |grad|_K:  9.014e-07  alpha:  4.654e-01  linmin:  7.608e-06  t[s]:   2423.47
	FillingsUpdate:  mu: +0.216537596  nElectrons: 44.500000  magneticMoment: [ Abs: 0.13945  Tot: +0.01769 ]
	SubspaceRotationAdjust: set factor to 0.0992
ElecMinimize: Iter:  82  F: -186.385678886633656  |grad|_K:  9.523e-07  alpha:  1.065e+00  linmin:  3.984e-05  t[s]:   2441.98
	FillingsUpdate:  mu: +0.215336125  nElectrons: 44.500000  magneticMoment: [ Abs: 0.14067  Tot: +0.01796 ]
	SubspaceRotationAdjust: set factor to 0.104
ElecMinimize: Iter:  83  F: -186.385686284636193  |grad|_K:  6.399e-07  alpha:  5.825e-01  linmin: -1.364e-05  t[s]:   2461.00
	FillingsUpdate:  mu: +0.215763202  nElectrons: 44.500000  magneticMoment: [ Abs: 0.14164  Tot: +0.01818 ]
	SubspaceRotationAdjust: set factor to 0.0644
ElecMinimize: Iter:  84  F: -186.385689592901997  |grad|_K:  7.999e-07  alpha:  5.755e-01  linmin:  1.016e-05  t[s]:   2480.28
	FillingsUpdate:  mu: +0.216039553  nElectrons: 44.500000  magneticMoment: [ Abs: 0.14216  Tot: +0.01829 ]
	SubspaceRotationAdjust: set factor to 0.042
ElecMinimize: Iter:  85  F: -186.385690986241258  |grad|_K:  3.731e-07  alpha:  1.552e-01  linmin: -6.946e-06  t[s]:   2499.11
ElecMinimize: 	Predicted alpha/alphaT>3.000000, increasing alphaT to 4.657456e-01.
	FillingsUpdate:  mu: +0.216195075  nElectrons: 44.500000  magneticMoment: [ Abs: 0.14277  Tot: +0.01843 ]
	SubspaceRotationAdjust: set factor to 0.0589
ElecMinimize: Iter:  86  F: -186.385691959525218  |grad|_K:  3.141e-07  alpha:  4.981e-01  linmin:  2.066e-06  t[s]:   2525.78
	FillingsUpdate:  mu: +0.216229523  nElectrons: 44.500000  magneticMoment: [ Abs: 0.14340  Tot: +0.01856 ]
	SubspaceRotationAdjust: set factor to 0.0539
ElecMinimize: Iter:  87  F: -186.385692695155655  |grad|_K:  3.369e-07  alpha:  5.317e-01  linmin: -1.268e-07  t[s]:   2547.06
	FillingsUpdate:  mu: +0.216192497  nElectrons: 44.500000  magneticMoment: [ Abs: 0.14447  Tot: +0.01878 ]
	SubspaceRotationAdjust: set factor to 0.0462
ElecMinimize: Iter:  88  F: -186.385693626591603  |grad|_K:  3.839e-07  alpha:  5.848e-01  linmin: -1.394e-06  t[s]:   2567.78
	FillingsUpdate:  mu: +0.216110450  nElectrons: 44.500000  magneticMoment: [ Abs: 0.14627  Tot: +0.01915 ]
	SubspaceRotationAdjust: set factor to 0.0519
ElecMinimize: Iter:  89  F: -186.385694949508547  |grad|_K:  3.223e-07  alpha:  6.395e-01  linmin: -4.925e-06  t[s]:   2587.70
	FillingsUpdate:  mu: +0.216056582  nElectrons: 44.500000  magneticMoment: [ Abs: 0.14755  Tot: +0.01939 ]
	SubspaceRotationAdjust: set factor to 0.0508
ElecMinimize: Iter:  90  F: -186.385695722793116  |grad|_K:  2.507e-07  alpha:  5.300e-01  linmin: -1.632e-06  t[s]:   2608.22
	FillingsUpdate:  mu: +0.216061943  nElectrons: 44.500000  magneticMoment: [ Abs: 0.14836  Tot: +0.01953 ]
	SubspaceRotationAdjust: set factor to 0.0375
ElecMinimize: Iter:  91  F: -186.385696091718188  |grad|_K:  2.073e-07  alpha:  4.185e-01  linmin: -4.452e-07  t[s]:   2630.11
	FillingsUpdate:  mu: +0.216093938  nElectrons: 44.500000  magneticMoment: [ Abs: 0.14922  Tot: +0.01968 ]
	SubspaceRotationAdjust: set factor to 0.0364
ElecMinimize: Iter:  92  F: -186.385696381056277  |grad|_K:  1.584e-07  alpha:  4.798e-01  linmin: -6.382e-07  t[s]:   2649.55
	FillingsUpdate:  mu: +0.216106486  nElectrons: 44.500000  magneticMoment: [ Abs: 0.15016  Tot: +0.01983 ]
	SubspaceRotationAdjust: set factor to 0.0402
ElecMinimize: Iter:  93  F: -186.385696619930059  |grad|_K:  1.470e-07  alpha:  6.789e-01  linmin: -5.038e-07  t[s]:   2669.63
	FillingsUpdate:  mu: +0.216099403  nElectrons: 44.500000  magneticMoment: [ Abs: 0.15093  Tot: +0.01994 ]
	SubspaceRotationAdjust: set factor to 0.0363
ElecMinimize: Iter:  94  F: -186.385696771393583  |grad|_K:  1.175e-07  alpha:  4.999e-01  linmin: -2.827e-07  t[s]:   2690.31
	FillingsUpdate:  mu: +0.216084599  nElectrons: 44.500000  magneticMoment: [ Abs: 0.15183  Tot: +0.02007 ]
	SubspaceRotationAdjust: set factor to 0.0359
ElecMinimize: Iter:  95  F: -186.385696902908990  |grad|_K:  1.021e-07  alpha:  6.787e-01  linmin: -1.073e-06  t[s]:   2711.34
	FillingsUpdate:  mu: +0.216075453  nElectrons: 44.500000  magneticMoment: [ Abs: 0.15258  Tot: +0.02018 ]
	SubspaceRotationAdjust: set factor to 0.0421
ElecMinimize: Iter:  96  F: -186.385696985836688  |grad|_K:  9.405e-08  alpha:  5.671e-01  linmin:  1.281e-07  t[s]:   2731.84
	FillingsUpdate:  mu: +0.216069853  nElectrons: 44.500000  magneticMoment: [ Abs: 0.15352  Tot: +0.02031 ]
	SubspaceRotationAdjust: set factor to 0.0457
ElecMinimize: Iter:  97  F: -186.385697066984505  |grad|_K:  9.055e-08  alpha:  6.541e-01  linmin: -1.988e-07  t[s]:   2752.28
	FillingsUpdate:  mu: +0.216056758  nElectrons: 44.500000  magneticMoment: [ Abs: 0.15481  Tot: +0.02048 ]
	SubspaceRotationAdjust: set factor to 0.0457
ElecMinimize: Iter:  98  F: -186.385697153243115  |grad|_K:  1.064e-07  alpha:  7.499e-01  linmin:  5.181e-07  t[s]:   2771.78
	FillingsUpdate:  mu: +0.216029695  nElectrons: 44.500000  magneticMoment: [ Abs: 0.15686  Tot: +0.02074 ]
	SubspaceRotationAdjust: set factor to 0.0451
ElecMinimize: Iter:  99  F: -186.385697270617669  |grad|_K:  1.242e-07  alpha:  7.392e-01  linmin:  6.380e-07  t[s]:   2790.99
	FillingsUpdate:  mu: +0.216029382  nElectrons: 44.500000  magneticMoment: [ Abs: 0.16048  Tot: +0.02119 ]
	SubspaceRotationAdjust: set factor to 0.0492
ElecMinimize: Iter: 100  F: -186.385697455683299  |grad|_K:  1.528e-07  alpha:  8.556e-01  linmin:  9.976e-07  t[s]:   2810.75
	FillingsUpdate:  mu: +0.216146786  nElectrons: 44.500000  magneticMoment: [ Abs: 0.16854  Tot: +0.02218 ]
	SubspaceRotationAdjust: set factor to 0.0498
ElecMinimize: Iter: 101  F: -186.385697840241448  |grad|_K:  2.278e-07  alpha:  1.173e+00  linmin:  2.054e-06  t[s]:   2831.17
	FillingsUpdate:  mu: +0.216250909  nElectrons: 44.500000  magneticMoment: [ Abs: 0.17978  Tot: +0.02344 ]
	SubspaceRotationAdjust: set factor to 0.0444
ElecMinimize: Iter: 102  F: -186.385698325615948  |grad|_K:  2.754e-07  alpha:  6.658e-01  linmin:  4.410e-06  t[s]:   2852.63
	FillingsUpdate:  mu: +0.216279636  nElectrons: 44.500000  magneticMoment: [ Abs: 0.20239  Tot: +0.02586 ]
	SubspaceRotationAdjust: set factor to 0.0403
ElecMinimize: Iter: 103  F: -186.385699230265004  |grad|_K:  3.580e-07  alpha:  8.697e-01  linmin:  5.395e-05  t[s]:   2872.39
	FillingsUpdate:  mu: +0.216279618  nElectrons: 44.500000  magneticMoment: [ Abs: 0.20240  Tot: +0.02586 ]
	SubspaceRotationAdjust: set factor to 0.0481
ElecMinimize: Iter: 104  F: -186.385699230778926  |grad|_K:  3.550e-07  alpha:  1.632e-04  linmin: -4.574e-04  t[s]:   2892.50
ElecMinimize: 	Wrong curvature in test step, increasing alphaT to 4.895639e-04.
	FillingsUpdate:  mu: +0.216279578  nElectrons: 44.500000  magneticMoment: [ Abs: 0.20241  Tot: +0.02587 ]
	SubspaceRotationAdjust: set factor to 0.0563
ElecMinimize: Iter: 105  F: -186.385699231876259  |grad|_K:  3.604e-07  alpha: -9.350e-03  linmin: -1.012e-03  t[s]:   2912.84
ElecMinimize: Converged (|Delta F|<1.000000e-08 for 2 iters).
Setting wave functions to eigenvectors of Hamiltonian
Vacuum energy after initial minimize, F = -186.385699231876259

	Linear fluid (dielectric constant: 78.4, screening length: 5.74355 Bohr) occupying 0.570464 of unit cell:	Completed after 23 iterations at t[s]:   2923.72

-------- Electronic minimization -----------
	Linear fluid (dielectric constant: 78.4, screening length: 5.74355 Bohr) occupying 0.570464 of unit cell:	Completed after 0 iterations at t[s]:   2929.74
	FillingsUpdate:  mu: -0.052694929  nElectrons: 44.500000  magneticMoment: [ Abs: 0.21361  Tot: +0.02551 ]
ElecMinimize: Iter:   0  F: -186.484992676829620  |grad|_K:  1.482e-05  alpha:  1.000e+00
	Linear fluid (dielectric constant: 78.4, screening length: 5.74355 Bohr) occupying 0.571880 of unit cell:	Completed after 19 iterations at t[s]:   2947.60
	Linear fluid (dielectric constant: 78.4, screening length: 5.74355 Bohr) occupying 0.572331 of unit cell:	Completed after 16 iterations at t[s]:   2958.43
	FillingsUpdate:  mu: -0.075635018  nElectrons: 44.500000  magneticMoment: [ Abs: 0.21401  Tot: +0.02570 ]
	SubspaceRotationAdjust: set factor to 0.0598
ElecMinimize: Iter:   1  F: -186.486918088901035  |grad|_K:  1.012e-05  alpha:  5.976e-01  linmin: -3.023e-04  t[s]:   2965.97
	Linear fluid (dielectric constant: 78.4, screening length: 5.74355 Bohr) occupying 0.573069 of unit cell:	Completed after 15 iterations at t[s]:   2975.77
	Linear fluid (dielectric constant: 78.4, screening length: 5.74355 Bohr) occupying 0.573057 of unit cell:	Completed after 12 iterations at t[s]:   2985.88
	FillingsUpdate:  mu: -0.085496699  nElectrons: 44.500000  magneticMoment: [ Abs: 0.21421  Tot: +0.02562 ]
	SubspaceRotationAdjust: set factor to 0.0812
ElecMinimize: Iter:   2  F: -186.487550679668203  |grad|_K:  7.004e-06  alpha:  4.756e-01  linmin: -1.311e-03  t[s]:   2994.09
	Linear fluid (dielectric constant: 78.4, screening length: 5.74355 Bohr) occupying 0.574815 of unit cell:	Completed after 11 iterations at t[s]:   3002.01
	Linear fluid (dielectric constant: 78.4, screening length: 5.74355 Bohr) occupying 0.576790 of unit cell:	Completed after 13 iterations at t[s]:   3010.87
	FillingsUpdate:  mu: -0.093292739  nElectrons: 44.500000  magneticMoment: [ Abs: 0.21444  Tot: +0.02535 ]
	SubspaceRotationAdjust: set factor to 0.0713
ElecMinimize: Iter:   3  F: -186.488280396323177  |grad|_K:  9.177e-06  alpha:  9.385e-01  linmin: -3.306e-05  t[s]:   3017.77
	Linear fluid (dielectric constant: 78.4, screening length: 5.74355 Bohr) occupying 0.598181 of unit cell:	Completed after 20 iterations at t[s]:   3027.81
	Linear fluid (dielectric constant: 78.4, screening length: 5.74355 Bohr) occupying 0.625494 of unit cell:	Completed after 27 iterations at t[s]:   3038.41
	FillingsUpdate:  mu: -0.117773698  nElectrons: 44.500000  magneticMoment: [ Abs: 0.21530  Tot: +0.02481 ]
	SubspaceRotationAdjust: set factor to 0.0764
ElecMinimize: Iter:   4  F: -186.490186030013575  |grad|_K:  2.538e-05  alpha:  1.979e+00  linmin:  3.086e-04  t[s]:   3044.71
	Linear fluid (dielectric constant: 78.4, screening length: 5.74355 Bohr) occupying 0.710261 of unit cell:	Completed after 37 iterations at t[s]:   3056.60
	Linear fluid (dielectric constant: 78.4, screening length: 5.74355 Bohr) occupying 0.635618 of unit cell:	Completed after 34 iterations at t[s]:   3069.13
	FillingsUpdate:  mu: -0.118667288  nElectrons: 44.500000  magneticMoment: [ Abs: 0.21542  Tot: +0.02466 ]
	SubspaceRotationAdjust: set factor to 0.0927
ElecMinimize: Iter:   5  F: -186.490598227875665  |grad|_K:  2.732e-05  alpha:  6.743e-02  linmin: -4.954e-05  t[s]:   3076.01
	Linear fluid (dielectric constant: 78.4, screening length: 5.74355 Bohr) occupying 0.650423 of unit cell:	Completed after 28 iterations at t[s]:   3087.20
ElecMinimize: 	Predicted alpha/alphaT>3.000000, increasing alphaT to 2.022954e-01.
	Linear fluid (dielectric constant: 78.4, screening length: 5.74355 Bohr) occupying 0.675472 of unit cell:	Completed after 30 iterations at t[s]:   3099.72
	Linear fluid (dielectric constant: 78.4, screening length: 5.74355 Bohr) occupying 0.719004 of unit cell:	Completed after 31 iterations at t[s]:   3112.73
	FillingsUpdate:  mu: -0.148168721  nElectrons: 44.500000  magneticMoment: [ Abs: 0.21536  Tot: +0.02340 ]
	SubspaceRotationAdjust: set factor to 0.102
ElecMinimize: Iter:   6  F: -186.492227393265665  |grad|_K:  3.394e-05  alpha:  4.093e-01  linmin:  7.784e-04  t[s]:   3120.00
ElecMinimize: 	Bad step direction: g.d > 0.
ElecMinimize: 	Undoing step.
	Linear fluid (dielectric constant: 78.4, screening length: 5.74355 Bohr) occupying 0.719004 of unit cell:	Completed after 0 iterations at t[s]:   3127.95
ElecMinimize: 	Step failed: resetting search direction.
	FillingsUpdate:  mu: -0.148168721  nElectrons: 44.500000  magneticMoment: [ Abs: 0.21536  Tot: +0.02340 ]
	SubspaceRotationAdjust: set factor to 0.135
ElecMinimize: Iter:   7  F: -186.492227393266575  |grad|_K:  3.442e-05  alpha:  0.000e+00
	Linear fluid (dielectric constant: 78.4, screening length: 5.74355 Bohr) occupying 0.737382 of unit cell:	Completed after 31 iterations at t[s]:   3146.85
	Linear fluid (dielectric constant: 78.4, screening length: 5.74355 Bohr) occupying 0.742871 of unit cell:	Completed after 27 iterations at t[s]:   3158.25
	FillingsUpdate:  mu: -0.126023913  nElectrons: 44.500000  magneticMoment: [ Abs: 0.21445  Tot: +0.02311 ]
	SubspaceRotationAdjust: set factor to 0.158
ElecMinimize: Iter:   8  F: -186.503964713602073  |grad|_K:  2.669e-05  alpha:  6.949e-01  linmin: -1.737e-03  t[s]:   3165.22
	Linear fluid (dielectric constant: 78.4, screening length: 5.74355 Bohr) occupying 0.747548 of unit cell:	Completed after 29 iterations at t[s]:   3177.08
	Linear fluid (dielectric constant: 78.4, screening length: 5.74355 Bohr) occupying 0.746397 of unit cell:	Completed after 25 iterations at t[s]:   3188.66
	FillingsUpdate:  mu: -0.113293640  nElectrons: 44.500000  magneticMoment: [ Abs: 0.21314  Tot: +0.02246 ]
	SubspaceRotationAdjust: set factor to 0.151
ElecMinimize: Iter:   9  F: -186.508592541982154  |grad|_K:  1.540e-05  alpha:  4.627e-01  linmin: -1.907e-04  t[s]:   3196.81
	Linear fluid (dielectric constant: 78.4, screening length: 5.74355 Bohr) occupying 0.747735 of unit cell:	Completed after 29 iterations at t[s]:   3209.48
	Linear fluid (dielectric constant: 78.4, screening length: 5.74355 Bohr) occupying 0.747533 of unit cell:	Completed after 21 iterations at t[s]:   3219.68
	FillingsUpdate:  mu: -0.106747983  nElectrons: 44.500000  magneticMoment: [ Abs: 0.21200  Tot: +0.02306 ]
	SubspaceRotationAdjust: set factor to 0.089
ElecMinimize: Iter:  10  F: -186.509887319778358  |grad|_K:  9.112e-06  alpha:  3.892e-01  linmin: -2.161e-04  t[s]:   3226.89
	Linear fluid (dielectric constant: 78.4, screening length: 5.74355 Bohr) occupying 0.748096 of unit cell:	Completed after 23 iterations at t[s]:   3237.33
	Linear fluid (dielectric constant: 78.4, screening length: 5.74355 Bohr) occupying 0.748375 of unit cell:	Completed after 21 iterations at t[s]:   3248.00
	FillingsUpdate:  mu: -0.103342694  nElectrons: 44.500000  magneticMoment: [ Abs: 0.20996  Tot: +0.02220 ]
	SubspaceRotationAdjust: set factor to 0.0532
ElecMinimize: Iter:  11  F: -186.510586165093258  |grad|_K:  5.501e-06  alpha:  5.885e-01  linmin: -1.197e-04  t[s]:   3255.81
	Linear fluid (dielectric constant: 78.4, screening length: 5.74355 Bohr) occupying 0.748721 of unit cell:	Completed after 22 iterations at t[s]:   3266.28
	Linear fluid (dielectric constant: 78.4, screening length: 5.74355 Bohr) occupying 0.748888 of unit cell:	Completed after 19 iterations at t[s]:   3277.77
	FillingsUpdate:  mu: -0.106096668  nElectrons: 44.500000  magneticMoment: [ Abs: 0.20768  Tot: +0.02195 ]
	SubspaceRotationAdjust: set factor to 0.0643
ElecMinimize: Iter:  12  F: -186.510965042794993  |grad|_K:  3.893e-06  alpha:  8.766e-01  linmin: -5.029e-06  t[s]:   3287.38
	Linear fluid (dielectric constant: 78.4, screening length: 5.74355 Bohr) occupying 0.749145 of unit cell:	Completed after 22 iterations at t[s]:   3296.99
	Linear fluid (dielectric constant: 78.4, screening length: 5.74355 Bohr) occupying 0.749021 of unit cell:	Completed after 21 iterations at t[s]:   3308.83
	FillingsUpdate:  mu: -0.107175249  nElectrons: 44.500000  magneticMoment: [ Abs: 0.20676  Tot: +0.02186 ]
	SubspaceRotationAdjust: set factor to 0.0668
ElecMinimize: Iter:  13  F: -186.511061254794924  |grad|_K:  2.308e-06  alpha:  4.520e-01  linmin:  1.757e-08  t[s]:   3317.43
	Linear fluid (dielectric constant: 78.4, screening length: 5.74355 Bohr) occupying 0.749055 of unit cell:	Completed after 14 iterations at t[s]:   3326.01
	Linear fluid (dielectric constant: 78.4, screening length: 5.74355 Bohr) occupying 0.749067 of unit cell:	Completed after 8 iterations at t[s]:   3334.35
	FillingsUpdate:  mu: -0.107606528  nElectrons: 44.500000  magneticMoment: [ Abs: 0.20579  Tot: +0.02170 ]
	SubspaceRotationAdjust: set factor to 0.0735
ElecMinimize: Iter:  14  F: -186.511106921525567  |grad|_K:  1.730e-06  alpha:  6.114e-01  linmin:  5.374e-07  t[s]:   3341.63
	Linear fluid (dielectric constant: 78.4, screening length: 5.74355 Bohr) occupying 0.749071 of unit cell:	Completed after 16 iterations at t[s]:   3351.64
	Linear fluid (dielectric constant: 78.4, screening length: 5.74355 Bohr) occupying 0.749071 of unit cell:	Completed after 3 iterations at t[s]:   3359.94
	FillingsUpdate:  mu: -0.107398771  nElectrons: 44.500000  magneticMoment: [ Abs: 0.20473  Tot: +0.02151 ]
	SubspaceRotationAdjust: set factor to 0.0818
ElecMinimize: Iter:  15  F: -186.511131972788007  |grad|_K:  1.333e-06  alpha:  5.971e-01  linmin:  3.663e-07  t[s]:   3368.35
	Linear fluid (dielectric constant: 78.4, screening length: 5.74355 Bohr) occupying 0.749048 of unit cell:	Completed after 12 iterations at t[s]:   3376.60
	Linear fluid (dielectric constant: 78.4, screening length: 5.74355 Bohr) occupying 0.749050 of unit cell:	Completed after 3 iterations at t[s]:   3385.34
	FillingsUpdate:  mu: -0.107336780  nElectrons: 44.500000  magneticMoment: [ Abs: 0.20363  Tot: +0.02133 ]
	SubspaceRotationAdjust: set factor to 0.107
ElecMinimize: Iter:  16  F: -186.511145556906826  |grad|_K:  9.178e-07  alpha:  5.455e-01  linmin:  4.559e-07  t[s]:   3393.20
	Linear fluid (dielectric constant: 78.4, screening length: 5.74355 Bohr) occupying 0.749018 of unit cell:	Completed after 15 iterations at t[s]:   3402.38
	Linear fluid (dielectric constant: 78.4, screening length: 5.74355 Bohr) occupying 0.748999 of unit cell:	Completed after 12 iterations at t[s]:   3412.36
	FillingsUpdate:  mu: -0.108134883  nElectrons: 44.500000  magneticMoment: [ Abs: 0.20187  Tot: +0.02104 ]
	SubspaceRotationAdjust: set factor to 0.128
ElecMinimize: Iter:  17  F: -186.511155702723983  |grad|_K:  8.501e-07  alpha:  8.589e-01  linmin:  3.901e-08  t[s]:   3420.56
	Linear fluid (dielectric constant: 78.4, screening length: 5.74355 Bohr) occupying 0.748944 of unit cell:	Completed after 15 iterations at t[s]:   3430.74
	Linear fluid (dielectric constant: 78.4, screening length: 5.74355 Bohr) occupying 0.748953 of unit cell:	Completed after 11 iterations at t[s]:   3440.58
	FillingsUpdate:  mu: -0.108744369  nElectrons: 44.500000  magneticMoment: [ Abs: 0.19966  Tot: +0.02066 ]
	SubspaceRotationAdjust: set factor to 0.154
ElecMinimize: Iter:  18  F: -186.511162851244478  |grad|_K:  7.984e-07  alpha:  7.053e-01  linmin: -1.174e-07  t[s]:   3446.80
	Linear fluid (dielectric constant: 78.4, screening length: 5.74355 Bohr) occupying 0.748927 of unit cell:	Completed after 15 iterations at t[s]:   3456.01
	Linear fluid (dielectric constant: 78.4, screening length: 5.74355 Bohr) occupying 0.748928 of unit cell:	Completed after 2 iterations at t[s]:   3463.65
	FillingsUpdate:  mu: -0.108829367  nElectrons: 44.500000  magneticMoment: [ Abs: 0.19666  Tot: +0.02015 ]
	SubspaceRotationAdjust: set factor to 0.183
ElecMinimize: Iter:  19  F: -186.511168972854989  |grad|_K:  6.662e-07  alpha:  6.846e-01  linmin:  7.551e-09  t[s]:   3471.11
	Linear fluid (dielectric constant: 78.4, screening length: 5.74355 Bohr) occupying 0.748934 of unit cell:	Completed after 11 iterations at t[s]:   3480.25
	Linear fluid (dielectric constant: 78.4, screening length: 5.74355 Bohr) occupying 0.748934 of unit cell:	Completed after 0 iterations at t[s]:   3488.53
	FillingsUpdate:  mu: -0.108882500  nElectrons: 44.500000  magneticMoment: [ Abs: 0.19320  Tot: +0.01959 ]
	SubspaceRotationAdjust: set factor to 0.203
ElecMinimize: Iter:  20  F: -186.511173330162336  |grad|_K:  6.277e-07  alpha:  6.999e-01  linmin: -7.651e-07  t[s]:   3496.52
	Linear fluid (dielectric constant: 78.4, screening length: 5.74355 Bohr) occupying 0.748971 of unit cell:	Completed after 12 iterations at t[s]:   3506.82
	Linear fluid (dielectric constant: 78.4, screening length: 5.74355 Bohr) occupying 0.748968 of unit cell:	Completed after 5 iterations at t[s]:   3515.01
	FillingsUpdate:  mu: -0.108923230  nElectrons: 44.500000  magneticMoment: [ Abs: 0.18897  Tot: +0.01887 ]
	SubspaceRotationAdjust: set factor to 0.218
ElecMinimize: Iter:  21  F: -186.511176877433826  |grad|_K:  4.876e-07  alpha:  6.405e-01  linmin:  1.000e-06  t[s]:   3522.31
	Linear fluid (dielectric constant: 78.4, screening length: 5.74355 Bohr) occupying 0.749022 of unit cell:	Completed after 16 iterations at t[s]:   3531.96
	Linear fluid (dielectric constant: 78.4, screening length: 5.74355 Bohr) occupying 0.749010 of unit cell:	Completed after 9 iterations at t[s]:   3541.13
	FillingsUpdate:  mu: -0.108634512  nElectrons: 44.500000  magneticMoment: [ Abs: 0.18578  Tot: +0.01835 ]
	SubspaceRotationAdjust: set factor to 0.213
ElecMinimize: Iter:  22  F: -186.511178548423942  |grad|_K:  4.182e-07  alpha:  5.020e-01  linmin:  3.248e-08  t[s]:   3548.64
	Linear fluid (dielectric constant: 78.4, screening length: 5.74355 Bohr) occupying 0.749053 of unit cell:	Completed after 16 iterations at t[s]:   3558.93
	Linear fluid (dielectric constant: 78.4, screening length: 5.74355 Bohr) occupying 0.749048 of unit cell:	Completed after 8 iterations at t[s]:   3569.35
	FillingsUpdate:  mu: -0.108465654  nElectrons: 44.500000  magneticMoment: [ Abs: 0.18256  Tot: +0.01782 ]
	SubspaceRotationAdjust: set factor to 0.175
ElecMinimize: Iter:  23  F: -186.511179646342100  |grad|_K:  3.708e-07  alpha:  4.471e-01  linmin:  2.649e-06  t[s]:   3577.11
	Linear fluid (dielectric constant: 78.4, screening length: 5.74355 Bohr) occupying 0.749079 of unit cell:	Completed after 12 iterations at t[s]:   3585.14
	Linear fluid (dielectric constant: 78.4, screening length: 5.74355 Bohr) occupying 0.749082 of unit cell:	Completed after 6 iterations at t[s]:   3593.08
	FillingsUpdate:  mu: -0.108534172  nElectrons: 44.500000  magneticMoment: [ Abs: 0.17851  Tot: +0.01718 ]
	SubspaceRotationAdjust: set factor to 0.163
ElecMinimize: Iter:  24  F: -186.511180610264319  |grad|_K:  2.850e-07  alpha:  5.015e-01  linmin: -4.258e-07  t[s]:   3600.46
	Linear fluid (dielectric constant: 78.4, screening length: 5.74355 Bohr) occupying 0.749103 of unit cell:	Completed after 8 iterations at t[s]:   3608.18
	Linear fluid (dielectric constant: 78.4, screening length: 5.74355 Bohr) occupying 0.749107 of unit cell:	Completed after 5 iterations at t[s]:   3616.17
	FillingsUpdate:  mu: -0.108624732  nElectrons: 44.500000  magneticMoment: [ Abs: 0.17449  Tot: +0.01653 ]
	SubspaceRotationAdjust: set factor to 0.205
ElecMinimize: Iter:  25  F: -186.511181291127940  |grad|_K:  2.313e-07  alpha:  5.978e-01  linmin:  7.660e-07  t[s]:   3623.21
	Linear fluid (dielectric constant: 78.4, screening length: 5.74355 Bohr) occupying 0.749127 of unit cell:	Completed after 10 iterations at t[s]:   3630.82
	Linear fluid (dielectric constant: 78.4, screening length: 5.74355 Bohr) occupying 0.749131 of unit cell:	Completed after 6 iterations at t[s]:   3639.26
	FillingsUpdate:  mu: -0.108578024  nElectrons: 44.500000  magneticMoment: [ Abs: 0.16995  Tot: +0.01582 ]
	SubspaceRotationAdjust: set factor to 0.243
ElecMinimize: Iter:  26  F: -186.511181838208017  |grad|_K:  2.484e-07  alpha:  7.286e-01  linmin: -1.006e-05  t[s]:   3646.03
	Linear fluid (dielectric constant: 78.4, screening length: 5.74355 Bohr) occupying 0.749158 of unit cell:	Completed after 16 iterations at t[s]:   3655.55
	Linear fluid (dielectric constant: 78.4, screening length: 5.74355 Bohr) occupying 0.749153 of unit cell:	Completed after 8 iterations at t[s]:   3664.90
	FillingsUpdate:  mu: -0.108477073  nElectrons: 44.500000  magneticMoment: [ Abs: 0.16441  Tot: +0.01498 ]
	SubspaceRotationAdjust: set factor to 0.213
ElecMinimize: Iter:  27  F: -186.511182351694060  |grad|_K:  2.853e-07  alpha:  5.919e-01  linmin: -7.825e-07  t[s]:   3672.52
	Linear fluid (dielectric constant: 78.4, screening length: 5.74355 Bohr) occupying 0.749173 of unit cell:	Completed after 12 iterations at t[s]:   3681.35
	Linear fluid (dielectric constant: 78.4, screening length: 5.74355 Bohr) occupying 0.749168 of unit cell:	Completed after 8 iterations at t[s]:   3690.73
	FillingsUpdate:  mu: -0.108503749  nElectrons: 44.500000  magneticMoment: [ Abs: 0.15769  Tot: +0.01394 ]
	SubspaceRotationAdjust: set factor to 0.202
ElecMinimize: Iter:  28  F: -186.511182869895606  |grad|_K:  2.767e-07  alpha:  4.535e-01  linmin:  1.208e-06  t[s]:   3698.30
	Linear fluid (dielectric constant: 78.4, screening length: 5.74355 Bohr) occupying 0.749177 of unit cell:	Completed after 10 iterations at t[s]:   3707.46
	Linear fluid (dielectric constant: 78.4, screening length: 5.74355 Bohr) occupying 0.749181 of unit cell:	Completed after 6 iterations at t[s]:   3717.34
	FillingsUpdate:  mu: -0.108575582  nElectrons: 44.500000  magneticMoment: [ Abs: 0.14732  Tot: +0.01237 ]
	SubspaceRotationAdjust: set factor to 0.21
ElecMinimize: Iter:  29  F: -186.511183564346226  |grad|_K:  2.719e-07  alpha:  6.469e-01  linmin: -7.956e-07  t[s]:   3725.30
	Linear fluid (dielectric constant: 78.4, screening length: 5.74355 Bohr) occupying 0.749191 of unit cell:	Completed after 10 iterations at t[s]:   3733.07
	Linear fluid (dielectric constant: 78.4, screening length: 5.74355 Bohr) occupying 0.749194 of unit cell:	Completed after 3 iterations at t[s]:   3741.85
	FillingsUpdate:  mu: -0.108476192  nElectrons: 44.500000  magneticMoment: [ Abs: 0.13331  Tot: +0.01027 ]
	SubspaceRotationAdjust: set factor to 0.229
ElecMinimize: Iter:  30  F: -186.511184403306004  |grad|_K:  3.018e-07  alpha:  8.079e-01  linmin: -1.022e-07  t[s]:   3750.32
	Linear fluid (dielectric constant: 78.4, screening length: 5.74355 Bohr) occupying 0.749198 of unit cell:	Completed after 11 iterations at t[s]:   3760.15
	Linear fluid (dielectric constant: 78.4, screening length: 5.74355 Bohr) occupying 0.749197 of unit cell:	Completed after 3 iterations at t[s]:   3768.70
	FillingsUpdate:  mu: -0.108407394  nElectrons: 44.500000  magneticMoment: [ Abs: 0.11761  Tot: +0.00795 ]
	SubspaceRotationAdjust: set factor to 0.243
ElecMinimize: Iter:  31  F: -186.511185271085679  |grad|_K:  3.422e-07  alpha:  6.792e-01  linmin:  2.599e-07  t[s]:   3776.52
	Linear fluid (dielectric constant: 78.4, screening length: 5.74355 Bohr) occupying 0.749185 of unit cell:	Completed after 15 iterations at t[s]:   3787.01
	Linear fluid (dielectric constant: 78.4, screening length: 5.74355 Bohr) occupying 0.749189 of unit cell:	Completed after 11 iterations at t[s]:   3796.48
	FillingsUpdate:  mu: -0.108503741  nElectrons: 44.500000  magneticMoment: [ Abs: 0.10447  Tot: +0.00605 ]
	SubspaceRotationAdjust: set factor to 0.205
ElecMinimize: Iter:  32  F: -186.511185953417453  |grad|_K:  3.578e-07  alpha:  4.183e-01  linmin: -1.403e-06  t[s]:   3803.98
	Linear fluid (dielectric constant: 78.4, screening length: 5.74355 Bohr) occupying 0.749175 of unit cell:	Completed after 12 iterations at t[s]:   3813.09
	Linear fluid (dielectric constant: 78.4, screening length: 5.74355 Bohr) occupying 0.749171 of unit cell:	Completed after 8 iterations at t[s]:   3822.41
	FillingsUpdate:  mu: -0.108620563  nElectrons: 44.500000  magneticMoment: [ Abs: 0.08448  Tot: +0.00318 ]
	SubspaceRotationAdjust: set factor to 0.217
ElecMinimize: Iter:  33  F: -186.511186953765332  |grad|_K:  3.198e-07  alpha:  5.562e-01  linmin:  2.594e-07  t[s]:   3830.54
	Linear fluid (dielectric constant: 78.4, screening length: 5.74355 Bohr) occupying 0.749156 of unit cell:	Completed after 9 iterations at t[s]:   3839.53
	Linear fluid (dielectric constant: 78.4, screening length: 5.74355 Bohr) occupying 0.749152 of unit cell:	Completed after 5 iterations at t[s]:   3849.53
	FillingsUpdate:  mu: -0.108529765  nElectrons: 44.500000  magneticMoment: [ Abs: 0.06347  Tot: +0.00023 ]
	SubspaceRotationAdjust: set factor to 0.256
ElecMinimize: Iter:  34  F: -186.511187965023652  |grad|_K:  3.060e-07  alpha:  7.050e-01  linmin: -2.333e-06  t[s]:   3857.36
	Linear fluid (dielectric constant: 78.4, screening length: 5.74355 Bohr) occupying 0.749129 of unit cell:	Completed after 12 iterations at t[s]:   3868.84
	Linear fluid (dielectric constant: 78.4, screening length: 5.74355 Bohr) occupying 0.749133 of unit cell:	Completed after 8 iterations at t[s]:   3878.22
	FillingsUpdate:  mu: -0.108520388  nElectrons: 44.500000  magneticMoment: [ Abs: 0.04685  Tot: -0.00202 ]
	SubspaceRotationAdjust: set factor to 0.279
ElecMinimize: Iter:  35  F: -186.511188740214209  |grad|_K:  3.076e-07  alpha:  5.895e-01  linmin:  2.286e-06  t[s]:   3884.25
	Linear fluid (dielectric constant: 78.4, screening length: 5.74355 Bohr) occupying 0.749108 of unit cell:	Completed after 15 iterations at t[s]:   3893.32
	Linear fluid (dielectric constant: 78.4, screening length: 5.74355 Bohr) occupying 0.749116 of unit cell:	Completed after 10 iterations at t[s]:   3901.77
	FillingsUpdate:  mu: -0.108613258  nElectrons: 44.500000  magneticMoment: [ Abs: 0.03480  Tot: -0.00360 ]
	SubspaceRotationAdjust: set factor to 0.235
ElecMinimize: Iter:  36  F: -186.511189286108731  |grad|_K:  3.182e-07  alpha:  4.122e-01  linmin:  1.986e-07  t[s]:   3909.27
	Linear fluid (dielectric constant: 78.4, screening length: 5.74355 Bohr) occupying 0.749099 of unit cell:	Completed after 12 iterations at t[s]:   3918.10
	Linear fluid (dielectric constant: 78.4, screening length: 5.74355 Bohr) occupying 0.749101 of unit cell:	Completed after 6 iterations at t[s]:   3927.21
	FillingsUpdate:  mu: -0.108658755  nElectrons: 44.500000  magneticMoment: [ Abs: 0.02342  Tot: -0.00502 ]
	SubspaceRotationAdjust: set factor to 0.22
ElecMinimize: Iter:  37  F: -186.511189792587601  |grad|_K:  2.253e-07  alpha:  3.567e-01  linmin:  9.338e-07  t[s]:   3935.17
	Linear fluid (dielectric constant: 78.4, screening length: 5.74355 Bohr) occupying 0.749097 of unit cell:	Completed after 8 iterations at t[s]:   3943.83
	Linear fluid (dielectric constant: 78.4, screening length: 5.74355 Bohr) occupying 0.749094 of unit cell:	Completed after 8 iterations at t[s]:   3952.22
	FillingsUpdate:  mu: -0.108592388  nElectrons: 44.500000  magneticMoment: [ Abs: 0.01337  Tot: -0.00618 ]
	SubspaceRotationAdjust: set factor to 0.227
ElecMinimize: Iter:  38  F: -186.511190230902912  |grad|_K:  1.845e-07  alpha:  6.156e-01  linmin: -1.840e-06  t[s]:   3959.22
	Linear fluid (dielectric constant: 78.4, screening length: 5.74355 Bohr) occupying 0.749090 of unit cell:	Completed after 5 iterations at t[s]:   3967.90
	Linear fluid (dielectric constant: 78.4, screening length: 5.74355 Bohr) occupying 0.749091 of unit cell:	Completed after 3 iterations at t[s]:   3976.51
	FillingsUpdate:  mu: -0.108586602  nElectrons: 44.500000  magneticMoment: [ Abs: 0.00783  Tot: -0.00680 ]
	SubspaceRotationAdjust: set factor to 0.249
ElecMinimize: Iter:  39  F: -186.511190494488801  |grad|_K:  1.474e-07  alpha:  5.506e-01  linmin: -1.954e-07  t[s]:   3983.85
	Linear fluid (dielectric constant: 78.4, screening length: 5.74355 Bohr) occupying 0.749090 of unit cell:	Completed after 8 iterations at t[s]:   3993.01
	Linear fluid (dielectric constant: 78.4, screening length: 5.74355 Bohr) occupying 0.749090 of unit cell:	Completed after 0 iterations at t[s]:   4001.16
	FillingsUpdate:  mu: -0.108611667  nElectrons: 44.500000  magneticMoment: [ Abs: 0.00792  Tot: -0.00712 ]
	SubspaceRotationAdjust: set factor to 0.254
ElecMinimize: Iter:  40  F: -186.511190661249174  |grad|_K:  1.251e-07  alpha:  5.467e-01  linmin: -7.796e-07  t[s]:   4009.14
	Linear fluid (dielectric constant: 78.4, screening length: 5.74355 Bohr) occupying 0.749093 of unit cell:	Completed after 10 iterations at t[s]:   4017.94
	Linear fluid (dielectric constant: 78.4, screening length: 5.74355 Bohr) occupying 0.749092 of unit cell:	Completed after 7 iterations at t[s]:   4025.29
	FillingsUpdate:  mu: -0.108611341  nElectrons: 44.500000  magneticMoment: [ Abs: 0.00803  Tot: -0.00721 ]
	SubspaceRotationAdjust: set factor to 0.194
ElecMinimize: Iter:  41  F: -186.511190744967394  |grad|_K:  1.157e-07  alpha:  3.801e-01  linmin:  2.860e-06  t[s]:   4033.06
	Linear fluid (dielectric constant: 78.4, screening length: 5.74355 Bohr) occupying 0.749096 of unit cell:	Completed after 9 iterations at t[s]:   4041.93
	Linear fluid (dielectric constant: 78.4, screening length: 5.74355 Bohr) occupying 0.749095 of unit cell:	Completed after 0 iterations at t[s]:   4049.36
	FillingsUpdate:  mu: -0.108596988  nElectrons: 44.500000  magneticMoment: [ Abs: 0.00805  Tot: -0.00722 ]
	SubspaceRotationAdjust: set factor to 0.16
ElecMinimize: Iter:  42  F: -186.511190810028296  |grad|_K:  7.719e-08  alpha:  3.467e-01  linmin:  2.879e-05  t[s]:   4057.11
	Linear fluid (dielectric constant: 78.4, screening length: 5.74355 Bohr) occupying 0.749098 of unit cell:	Completed after 3 iterations at t[s]:   4065.22
	Linear fluid (dielectric constant: 78.4, screening length: 5.74355 Bohr) occupying 0.749099 of unit cell:	Completed after 3 iterations at t[s]:   4074.33
[...]
ion Ti  -0.000000014000000   0.000000021000000   0.500018709612583 1
ion Ti   0.333333319333333   0.666666687666667   0.619397442889657 1
ion Ti   0.666666652666667   0.333333354333333   0.380620970143286 1


# Forces in Lattice coordinates:
force C   0.000000000000000  -0.000000000000000   0.019178523781790 1
force C   0.000000000000000   0.000000000000000  -0.020759522447901 1
force Ti   0.000000000000000  -0.000000000000000  -0.003329089855757 1
force Ti   0.000000000000000   0.000000000000000   0.004692054998353 1
force Ti   0.000000000000000   0.000000000000000  -0.000827851490907 1

# Energy components:
   A_diel =       -0.1866428743909597
   Eewald =     1685.5897536333459357
       EH =     1865.6274887533995752
     Eloc =    -3772.9405219794775803
      Enl =       17.8898718750839834
      Exc =      -30.8159806773740748
 Exc_core =        3.9957070678047382
       KE =       44.3514488620878709
  MuShift =       -0.0101451150011049
-------------------------------------
     Etot =     -186.4990204545217125
       TS =        0.0123282812000978
-------------------------------------
        F =     -186.5113487357218105

IonicMinimize: Iter:   3  F: -186.511348735721810  |grad|_K:  2.005e-04  alpha:  1.000e+00  linmin: -6.627e-01  t[s]:   5499.32

#--- Lowdin population analysis ---
# oxidation-state C -1.125 -1.125
# magnetic-moments C +0.000 +0.000
# oxidation-state Ti +1.086 +0.772 +0.772
# magnetic-moments Ti -0.000 -0.001 -0.000

	Linear fluid (dielectric constant: 78.4, screening length: 5.74355 Bohr) occupying 0.748419 of unit cell:	Completed after 15 iterations at t[s]:   5510.12

-------- Electronic minimization -----------
	Linear fluid (dielectric constant: 78.4, screening length: 5.74355 Bohr) occupying 0.748419 of unit cell:	Completed after 0 iterations at t[s]:   5517.30
	FillingsUpdate:  mu: -0.108668619  nElectrons: 44.500000  magneticMoment: [ Abs: 0.00216  Tot: -0.00193 ]
ElecMinimize: Iter:   0  F: -186.511335677289566  |grad|_K:  1.043e-06  alpha:  1.000e+00
	Linear fluid (dielectric constant: 78.4, screening length: 5.74355 Bohr) occupying 0.748397 of unit cell:	Completed after 15 iterations at t[s]:   5535.86
	Linear fluid (dielectric constant: 78.4, screening length: 5.74355 Bohr) occupying 0.748407 of unit cell:	Completed after 12 iterations at t[s]:   5544.59
	FillingsUpdate:  mu: -0.108592777  nElectrons: 44.500000  magneticMoment: [ Abs: 0.00214  Tot: -0.00191 ]
	SubspaceRotationAdjust: set factor to 0.179
ElecMinimize: Iter:   1  F: -186.511344148673203  |grad|_K:  8.129e-07  alpha:  5.551e-01  linmin:  1.355e-05  t[s]:   5551.85
	Linear fluid (dielectric constant: 78.4, screening length: 5.74355 Bohr) occupying 0.748383 of unit cell:	Completed after 19 iterations at t[s]:   5561.63
	Linear fluid (dielectric constant: 78.4, screening length: 5.74355 Bohr) occupying 0.748396 of unit cell:	Completed after 12 iterations at t[s]:   5570.56
	FillingsUpdate:  mu: -0.108725953  nElectrons: 44.500000  magneticMoment: [ Abs: 0.00212  Tot: -0.00189 ]
	SubspaceRotationAdjust: set factor to 0.126
ElecMinimize: Iter:   2  F: -186.511346544854291  |grad|_K:  4.426e-07  alpha:  2.585e-01  linmin:  2.470e-05  t[s]:   5577.50
	Linear fluid (dielectric constant: 78.4, screening length: 5.74355 Bohr) occupying 0.748389 of unit cell:	Completed after 11 iterations at t[s]:   5585.67
	Linear fluid (dielectric constant: 78.4, screening length: 5.74355 Bohr) occupying 0.748384 of unit cell:	Completed after 9 iterations at t[s]:   5594.81
	FillingsUpdate:  mu: -0.108852332  nElectrons: 44.500000  magneticMoment: [ Abs: 0.00209  Tot: -0.00187 ]
	SubspaceRotationAdjust: set factor to 0.165
ElecMinimize: Iter:   3  F: -186.511347809909381  |grad|_K:  3.310e-07  alpha:  4.617e-01  linmin:  2.602e-04  t[s]:   5602.24
	Linear fluid (dielectric constant: 78.4, screening length: 5.74355 Bohr) occupying 0.748375 of unit cell:	Completed after 9 iterations at t[s]:   5610.83
	Linear fluid (dielectric constant: 78.4, screening length: 5.74355 Bohr) occupying 0.748370 of unit cell:	Completed after 9 iterations at t[s]:   5620.29
	FillingsUpdate:  mu: -0.108897619  nElectrons: 44.500000  magneticMoment: [ Abs: 0.00205  Tot: -0.00184 ]
	SubspaceRotationAdjust: set factor to 0.187
ElecMinimize: Iter:   4  F: -186.511348887610637  |grad|_K:  2.959e-07  alpha:  7.043e-01  linmin: -2.774e-05  t[s]:   5627.86
	Linear fluid (dielectric constant: 78.4, screening length: 5.74355 Bohr) occupying 0.748362 of unit cell:	Completed after 11 iterations at t[s]:   5636.11
	Linear fluid (dielectric constant: 78.4, screening length: 5.74355 Bohr) occupying 0.748364 of unit cell:	Completed after 10 iterations at t[s]:   5646.45
	FillingsUpdate:  mu: -0.108784222  nElectrons: 44.500000  magneticMoment: [ Abs: 0.00201  Tot: -0.00180 ]
	SubspaceRotationAdjust: set factor to 0.16
ElecMinimize: Iter:   5  F: -186.511349530608499  |grad|_K:  2.961e-07  alpha:  5.231e-01  linmin:  2.990e-05  t[s]:   5654.68
	Linear fluid (dielectric constant: 78.4, screening length: 5.74355 Bohr) occupying 0.748356 of unit cell:	Completed after 11 iterations at t[s]:   5663.22
	Linear fluid (dielectric constant: 78.4, screening length: 5.74355 Bohr) occupying 0.748357 of unit cell:	Completed after 6 iterations at t[s]:   5671.97
	FillingsUpdate:  mu: -0.108716978  nElectrons: 44.500000  magneticMoment: [ Abs: 0.00196  Tot: -0.00176 ]
	SubspaceRotationAdjust: set factor to 0.157
ElecMinimize: Iter:   6  F: -186.511350066898956  |grad|_K:  1.873e-07  alpha:  4.365e-01  linmin:  9.425e-06  t[s]:   5679.20
	Linear fluid (dielectric constant: 78.4, screening length: 5.74355 Bohr) occupying 0.748352 of unit cell:	Completed after 10 iterations at t[s]:   5688.16
	Linear fluid (dielectric constant: 78.4, screening length: 5.74355 Bohr) occupying 0.748349 of unit cell:	Completed after 7 iterations at t[s]:   5697.47
	FillingsUpdate:  mu: -0.108815083  nElectrons: 44.500000  magneticMoment: [ Abs: 0.00192  Tot: -0.00172 ]
	SubspaceRotationAdjust: set factor to 0.171
ElecMinimize: Iter:   7  F: -186.511350382717495  |grad|_K:  1.319e-07  alpha:  6.429e-01  linmin:  7.120e-05  t[s]:   5704.81
	Linear fluid (dielectric constant: 78.4, screening length: 5.74355 Bohr) occupying 0.748346 of unit cell:	Completed after 9 iterations at t[s]:   5713.20
	Linear fluid (dielectric constant: 78.4, screening length: 5.74355 Bohr) occupying 0.748347 of unit cell:	Completed after 2 iterations at t[s]:   5721.60
	FillingsUpdate:  mu: -0.108804301  nElectrons: 44.500000  magneticMoment: [ Abs: 0.00188  Tot: -0.00169 ]
	SubspaceRotationAdjust: set factor to 0.167
ElecMinimize: Iter:   8  F: -186.511350511713999  |grad|_K:  1.067e-07  alpha:  5.294e-01  linmin:  2.156e-04  t[s]:   5729.53
	Linear fluid (dielectric constant: 78.4, screening length: 5.74355 Bohr) occupying 0.748346 of unit cell:	Completed after 9 iterations at t[s]:   5738.37
	Linear fluid (dielectric constant: 78.4, screening length: 5.74355 Bohr) occupying 0.748346 of unit cell:	Completed after 8 iterations at t[s]:   5747.50
	FillingsUpdate:  mu: -0.108776785  nElectrons: 44.500000  magneticMoment: [ Abs: 0.00186  Tot: -0.00167 ]
	SubspaceRotationAdjust: set factor to 0.114
ElecMinimize: Iter:   9  F: -186.511350567272956  |grad|_K:  6.516e-08  alpha:  3.536e-01  linmin: -4.048e-05  t[s]:   5755.96
	Linear fluid (dielectric constant: 78.4, screening length: 5.74355 Bohr) occupying 0.748345 of unit cell:	Completed after 3 iterations at t[s]:   5763.24
	Linear fluid (dielectric constant: 78.4, screening length: 5.74355 Bohr) occupying 0.748345 of unit cell:	Completed after 3 iterations at t[s]:   5771.82
	FillingsUpdate:  mu: -0.108777718  nElectrons: 44.500000  magneticMoment: [ Abs: 0.00183  Tot: -0.00164 ]
	SubspaceRotationAdjust: set factor to 0.112
ElecMinimize: Iter:  10  F: -186.511350596870955  |grad|_K:  4.493e-08  alpha:  5.040e-01  linmin:  5.665e-04  t[s]:   5779.20
	Linear fluid (dielectric constant: 78.4, screening length: 5.74355 Bohr) occupying 0.748344 of unit cell:	Completed after 3 iterations at t[s]:   5787.35
	Linear fluid (dielectric constant: 78.4, screening length: 5.74355 Bohr) occupying 0.748344 of unit cell:	Completed after 0 iterations at t[s]:   5795.16
	FillingsUpdate:  mu: -0.108780782  nElectrons: 44.500000  magneticMoment: [ Abs: 0.00181  Tot: -0.00162 ]
	SubspaceRotationAdjust: set factor to 0.125
ElecMinimize: Iter:  11  F: -186.511350609430650  |grad|_K:  2.783e-08  alpha:  4.512e-01  linmin: -2.308e-05  t[s]:   5802.83
	Linear fluid (dielectric constant: 78.4, screening length: 5.74355 Bohr) occupying 0.748344 of unit cell:	Completed after 3 iterations at t[s]:   5811.34
	Linear fluid (dielectric constant: 78.4, screening length: 5.74355 Bohr) occupying 0.748344 of unit cell:	Completed after 0 iterations at t[s]:   5820.27
	FillingsUpdate:  mu: -0.108783635  nElectrons: 44.500000  magneticMoment: [ Abs: 0.00179  Tot: -0.00161 ]
	SubspaceRotationAdjust: set factor to 0.139
ElecMinimize: Iter:  12  F: -186.511350615257072  |grad|_K:  1.623e-08  alpha:  5.266e-01  linmin: -3.334e-03  t[s]:   5828.73
	Linear fluid (dielectric constant: 78.4, screening length: 5.74355 Bohr) occupying 0.748343 of unit cell:	Completed after 3 iterations at t[s]:   5835.51
	Linear fluid (dielectric constant: 78.4, screening length: 5.74355 Bohr) occupying 0.748343 of unit cell:	Completed after 0 iterations at t[s]:   5843.41
	FillingsUpdate:  mu: -0.108789818  nElectrons: 44.500000  magneticMoment: [ Abs: 0.00178  Tot: -0.00159 ]
	SubspaceRotationAdjust: set factor to 0.151
ElecMinimize: Iter:  13  F: -186.511350617210894  |grad|_K:  1.343e-08  alpha:  4.945e-01  linmin: -2.550e-03  t[s]:   5851.35
ElecMinimize: Converged (|Delta F|<1.000000e-08 for 2 iters).
Setting wave functions to eigenvectors of Hamiltonian

# Ionic positions in lattice coordinates:
ion C   0.666666652666667   0.333333354333333   0.566483786565357 1
ion C   0.333333319333333   0.666666687666667   0.433529170452448 1
ion Ti  -0.000000014000000   0.000000021000000   0.499968798695160 1
ion Ti   0.333333319333333   0.666666687666667   0.619516687710723 1
ion Ti   0.666666652666667   0.333333354333333   0.380571163526158 1


# Forces in Lattice coordinates:
force C   0.000000000000000   0.000000000000000   0.000426736429919 1
force C   0.000000000000000   0.000000000000000   0.004992512997975 1
force Ti   0.000000000000000   0.000000000000000   0.017011839367452 1
force Ti   0.000000000000000   0.000000000000000  -0.013506985110664 1
force Ti   0.000000000000000   0.000000000000000  -0.011963876682130 1

# Energy components:
   A_diel =       -0.1865813592423782
   Eewald =     1685.0451829219207411
       EH =     1865.0683619879328035
     Eloc =    -3771.8351016172123309
      Enl =       17.8896421450487502
      Exc =      -30.8150070398554909
 Exc_core =        3.9957107353789652
       KE =       44.3489190875420149
  MuShift =       -0.0101451150011049
-------------------------------------
     Etot =     -186.4990182534880319
       TS =        0.0123323637228747
-------------------------------------
        F =     -186.5113506172108941

IonicMinimize: Iter:   4  F: -186.511350617210894  |grad|_K:  1.756e-04  alpha:  1.000e+00  linmin:  4.241e-01  t[s]:   5854.78

#--- Lowdin population analysis ---
# oxidation-state C -1.125 -1.125
# magnetic-moments C +0.000 +0.000
# oxidation-state Ti +1.086 +0.772 +0.773
# magnetic-moments Ti -0.000 -0.001 -0.000

	Linear fluid (dielectric constant: 78.4, screening length: 5.74355 Bohr) occupying 0.748339 of unit cell:	Completed after 11 iterations at t[s]:   5863.90

-------- Electronic minimization -----------
	Linear fluid (dielectric constant: 78.4, screening length: 5.74355 Bohr) occupying 0.748339 of unit cell:	Completed after 0 iterations at t[s]:   5871.12
	FillingsUpdate:  mu: -0.108812722  nElectrons: 44.500000  magneticMoment: [ Abs: 0.00162  Tot: -0.00145 ]
ElecMinimize: Iter:   0  F: -186.511349040445424  |grad|_K:  4.008e-07  alpha:  1.000e+00
	Linear fluid (dielectric constant: 78.4, screening length: 5.74355 Bohr) occupying 0.748341 of unit cell:	Completed after 9 iterations at t[s]:   5890.14
	Linear fluid (dielectric constant: 78.4, screening length: 5.74355 Bohr) occupying 0.748340 of unit cell:	Completed after 8 iterations at t[s]:   5900.45
	FillingsUpdate:  mu: -0.108804043  nElectrons: 44.500000  magneticMoment: [ Abs: 0.00161  Tot: -0.00144 ]
	SubspaceRotationAdjust: set factor to 0.177
ElecMinimize: Iter:   1  F: -186.511350173000068  |grad|_K:  2.449e-07  alpha:  5.029e-01  linmin:  1.511e-05  t[s]:   5908.33
	Linear fluid (dielectric constant: 78.4, screening length: 5.74355 Bohr) occupying 0.748341 of unit cell:	Completed after 9 iterations at t[s]:   5916.67
	Linear fluid (dielectric constant: 78.4, screening length: 5.74355 Bohr) occupying 0.748341 of unit cell:	Completed after 3 iterations at t[s]:   5926.10
	FillingsUpdate:  mu: -0.108796780  nElectrons: 44.500000  magneticMoment: [ Abs: 0.00160  Tot: -0.00143 ]
	SubspaceRotationAdjust: set factor to 0.135
ElecMinimize: Iter:   2  F: -186.511350539505486  |grad|_K:  1.510e-07  alpha:  4.359e-01  linmin:  3.676e-05  t[s]:   5934.15
	Linear fluid (dielectric constant: 78.4, screening length: 5.74355 Bohr) occupying 0.748341 of unit cell:	Completed after 8 iterations at t[s]:   5942.89
	Linear fluid (dielectric constant: 78.4, screening length: 5.74355 Bohr) occupying 0.748341 of unit cell:	Completed after 7 iterations at t[s]:   5952.27
	FillingsUpdate:  mu: -0.108789350  nElectrons: 44.500000  magneticMoment: [ Abs: 0.00157  Tot: -0.00140 ]
	SubspaceRotationAdjust: set factor to 0.119
ElecMinimize: Iter:   3  F: -186.511350748972006  |grad|_K:  1.688e-07  alpha:  6.489e-01  linmin: -7.083e-04  t[s]:   5960.66
	Linear fluid (dielectric constant: 78.4, screening length: 5.74355 Bohr) occupying 0.748342 of unit cell:	Completed after 8 iterations at t[s]:   5970.05
	Linear fluid (dielectric constant: 78.4, screening length: 5.74355 Bohr) occupying 0.748342 of unit cell:	Completed after 1 iterations at t[s]:   5977.80
	FillingsUpdate:  mu: -0.108783579  nElectrons: 44.500000  magneticMoment: [ Abs: 0.00152  Tot: -0.00137 ]
	SubspaceRotationAdjust: set factor to 0.142
ElecMinimize: Iter:   4  F: -186.511351028710266  |grad|_K:  1.436e-07  alpha:  6.866e-01  linmin: -1.537e-04  t[s]:   5984.72
	Linear fluid (dielectric constant: 78.4, screening length: 5.74355 Bohr) occupying 0.748343 of unit cell:	Completed after 9 iterations at t[s]:   5993.14
	Linear fluid (dielectric constant: 78.4, screening length: 5.74355 Bohr) occupying 0.748343 of unit cell:	Completed after 2 iterations at t[s]:   6001.25
	FillingsUpdate:  mu: -0.108784517  nElectrons: 44.500000  magneticMoment: [ Abs: 0.00147  Tot: -0.00132 ]
	SubspaceRotationAdjust: set factor to 0.148
ElecMinimize: Iter:   5  F: -186.511351254546071  |grad|_K:  1.096e-07  alpha:  7.743e-01  linmin: -3.110e-04  t[s]:   6008.93
	Linear fluid (dielectric constant: 78.4, screening length: 5.74355 Bohr) occupying 0.748342 of unit cell:	Completed after 10 iterations at t[s]:   6018.36
	Linear fluid (dielectric constant: 78.4, screening length: 5.74355 Bohr) occupying 0.748343 of unit cell:	Completed after 8 iterations at t[s]:   6027.37
	FillingsUpdate:  mu: -0.108787712  nElectrons: 44.500000  magneticMoment: [ Abs: 0.00145  Tot: -0.00130 ]
	SubspaceRotationAdjust: set factor to 0.0973
ElecMinimize: Iter:   6  F: -186.511351326000550  |grad|_K:  6.366e-08  alpha:  4.152e-01  linmin:  7.927e-05  t[s]:   6035.85
	Linear fluid (dielectric constant: 78.4, screening length: 5.74355 Bohr) occupying 0.748342 of unit cell:	Completed after 3 iterations at t[s]:   6043.46
	Linear fluid (dielectric constant: 78.4, screening length: 5.74355 Bohr) occupying 0.748342 of unit cell:	Completed after 0 iterations at t[s]:   6050.74
	FillingsUpdate:  mu: -0.108788212  nElectrons: 44.500000  magneticMoment: [ Abs: 0.00143  Tot: -0.00128 ]
	SubspaceRotationAdjust: set factor to 0.112
ElecMinimize: Iter:   7  F: -186.511351351481636  |grad|_K:  4.339e-08  alpha:  4.488e-01  linmin: -9.671e-04  t[s]:   6057.77
	Linear fluid (dielectric constant: 78.4, screening length: 5.74355 Bohr) occupying 0.748342 of unit cell:	Completed after 3 iterations at t[s]:   6064.93
	Linear fluid (dielectric constant: 78.4, screening length: 5.74355 Bohr) occupying 0.748342 of unit cell:	Completed after 0 iterations at t[s]:   6072.09
	FillingsUpdate:  mu: -0.108789659  nElectrons: 44.500000  magneticMoment: [ Abs: 0.00142  Tot: -0.00127 ]
	SubspaceRotationAdjust: set factor to 0.111
ElecMinimize: Iter:   8  F: -186.511351364648988  |grad|_K:  2.438e-08  alpha:  4.835e-01  linmin: -3.427e-03  t[s]:   6079.75
	Linear fluid (dielectric constant: 78.4, screening length: 5.74355 Bohr) occupying 0.748342 of unit cell:	Completed after 2 iterations at t[s]:   6087.01
	Linear fluid (dielectric constant: 78.4, screening length: 5.74355 Bohr) occupying 0.748342 of unit cell:	Completed after 0 iterations at t[s]:   6094.11
	FillingsUpdate:  mu: -0.108790193  nElectrons: 44.500000  magneticMoment: [ Abs: 0.00140  Tot: -0.00126 ]
	SubspaceRotationAdjust: set factor to 0.119
ElecMinimize: Iter:   9  F: -186.511351369898023  |grad|_K:  1.713e-08  alpha:  5.827e-01  linmin: -2.670e-03  t[s]:   6100.85
	Linear fluid (dielectric constant: 78.4, screening length: 5.74355 Bohr) occupying 0.748341 of unit cell:	Completed after 2 iterations at t[s]:   6108.01
	Linear fluid (dielectric constant: 78.4, screening length: 5.74355 Bohr) occupying 0.748342 of unit cell:	Completed after 0 iterations at t[s]:   6114.75
	FillingsUpdate:  mu: -0.108791909  nElectrons: 44.500000  magneticMoment: [ Abs: 0.00139  Tot: -0.00125 ]
	SubspaceRotationAdjust: set factor to 0.133
ElecMinimize: Iter:  10  F: -186.511351372094623  |grad|_K:  1.164e-08  alpha:  4.954e-01  linmin:  4.912e-04  t[s]:   6122.81
ElecMinimize: Converged (|Delta F|<1.000000e-08 for 2 iters).
Setting wave functions to eigenvectors of Hamiltonian

# Ionic positions in lattice coordinates:
ion C   0.666666652666667   0.333333354333333   0.566491025293227 1
ion C   0.333333319333333   0.666666687666667   0.433543074621029 1
ion Ti  -0.000000014000000   0.000000021000000   0.500024970839012 1
ion Ti   0.333333319333333   0.666666687666667   0.619473374725657 1
ion Ti   0.666666652666667   0.333333354333333   0.380537161470921 1


# Forces in Lattice coordinates:
force C   0.000000000000000   0.000000000000000  -0.003666406529955 1
force C   0.000000000000000   0.000000000000000   0.000970785928184 1
force Ti   0.000000000000000   0.000000000000000  -0.009471421043107 1
force Ti   0.000000000000000  -0.000000000000000   0.006440517603108 1
force Ti   0.000000000000000   0.000000000000000   0.003558303022809 1

# Energy components:
   A_diel =       -0.1865738526792886
   Eewald =     1685.0714731085336098
       EH =     1865.0936312740591347
     Eloc =    -3771.8868220263811963
      Enl =       17.8896768901061876
      Exc =      -30.8150703958557273
 Exc_core =        3.9957104778015857
       KE =       44.3491002339273521
  MuShift =       -0.0101451150011049
-------------------------------------
     Etot =     -186.4990194054891219
       TS =        0.0123319666054871
-------------------------------------
        F =     -186.5113513720946230

IonicMinimize: Iter:   5  F: -186.511351372094623  |grad|_K:  8.715e-05  alpha:  1.000e+00  linmin:  9.366e-01  t[s]:   6126.11
IonicMinimize: Converged (|grad|_K<1.000000e-04).

#--- Lowdin population analysis ---
# oxidation-state C -1.125 -1.125
# magnetic-moments C +0.000 +0.000
# oxidation-state Ti +1.086 +0.772 +0.773
# magnetic-moments Ti -0.000 -0.001 -0.000


Dumping 'NbTe2.fillings' ... done
Dumping 'NbTe2.wfns' ... done
Dumping 'NbTe2.fluidState' ... done
Dumping 'NbTe2.ionpos' ... done
Dumping 'NbTe2.eigenvals' ... done
End date and time: Fri Dec 25 11:12:02 2020  (Duration: 0-1:42:07.06)
Done!
