
*************** JDFTx 1.5.0  ***************

Start date and time: Sun Jan 17 18:35:47 2021
Executable jdftx_gpu with command-line: -i Charged.in -o Charged.out
Running on hosts (process indices):  amax (0-4)
Divided in process groups (process indices):  0 (0)  1 (1)  2 (2)  3 (3)  4 (4)
gpuInit: Found compatible cuda device 0 'Tesla K80'
gpuInit: Found compatible cuda device 1 'Tesla K80'
gpuInit: Found compatible cuda device 2 'Tesla K80'
gpuInit: Found compatible cuda device 3 'Tesla K80'
gpuInit: Found compatible cuda device 4 'Tesla K80'
gpuInit: Selected device 0
Resource initialization completed at t[s]:      2.98
Run totals: 5 processes, 24 threads, 5 GPUs


Input parsed successfully to the following command list (including defaults):

basis kpoint-dependent
cache-projectors no
coords-type Lattice
core-overlap-check none
coulomb-interaction Slab 001
coulomb-truncation-embed 0.5 0.5 0.5
davidson-band-ratio 1.1
dump End State
dump-name NbTe2.$VAR
elec-cutoff 20
elec-eigen-algo Davidson
elec-ex-corr gga-PBE
elec-initial-charge 0.500000
elec-initial-magnetization 5.000000 no
elec-smearing Gauss 0.0073499
electronic-minimize  \
	dirUpdateScheme      FletcherReeves \
	linminMethod         DirUpdateRecommended \
	nIterations          200 \
	history              15 \
	knormThreshold       0 \
	energyDiffThreshold  1e-08 \
	nEnergyDiff          2 \
	alphaTstart          1 \
	alphaTmin            1e-10 \
	updateTestStepSize   yes \
	alphaTreduceFactor   0.1 \
	alphaTincreaseFactor 3 \
	nAlphaAdjustMax      3 \
	wolfeEnergy          0.0001 \
	wolfeGradient        0.9 \
	fdTest               no
exchange-regularization WignerSeitzTruncated
fluid LinearPCM 298.000000 1.013250
fluid-anion F- 1 MeanFieldLJ \
	epsBulk 1 \
	pMol 0 \
	epsInf 1 \
	Pvap 0 \
	sigmaBulk 0 \
	Rvdw 2.24877 \
	Res 0 \
	tauNuc 343133
fluid-cation Na+ 1 MeanFieldLJ \
	epsBulk 1 \
	pMol 0 \
	epsInf 1 \
	Pvap 0 \
	sigmaBulk 0 \
	Rvdw 2.19208 \
	Res 0 \
	tauNuc 343133
fluid-ex-corr lda-TF lda-PZ
fluid-gummel-loop 10 1.000000e-05
fluid-minimize  \
	dirUpdateScheme      PolakRibiere \
	linminMethod         DirUpdateRecommended \
	nIterations          400 \
	history              15 \
	knormThreshold       1e-11 \
	energyDiffThreshold  0 \
	nEnergyDiff          2 \
	alphaTstart          1 \
	alphaTmin            1e-10 \
	updateTestStepSize   yes \
	alphaTreduceFactor   0.1 \
	alphaTincreaseFactor 3 \
	nAlphaAdjustMax      6 \
	wolfeEnergy          0.0001 \
	wolfeGradient        0.9 \
	fdTest               no
fluid-solvent H2O 55.338 ScalarEOS \
	epsBulk 78.4 \
	pMol 0.92466 \
	epsInf 1.77 \
	Pvap 1.06736e-10 \
	sigmaBulk 4.62e-05 \
	Rvdw 2.61727 \
	Res 1.42 \
	tauNuc 343133 \
	poleEl 15 7 1
forces-output-coords Positions
initial-state NbTe2.$VAR
ion W   0.083333770193438   0.166666215384150   0.500000009000000 1
ion W   0.333333770193438   0.166666215384150   0.500000009000000 1
ion W   0.583333770193438   0.166666215384150   0.500000009000000 1
ion W   0.833333770193438   0.166666215384150   0.500000009000000 1
ion W   0.083333770193438   0.416666215384150   0.500000009000000 1
ion W   0.333333770193438   0.416666215384150   0.500000009000000 1
ion W   0.583333770193438   0.416666215384150   0.500000009000000 1
ion W   0.833333770193438   0.416666215384150   0.500000009000000 1
ion W   0.083333770193438   0.666666215384150   0.500000009000000 1
ion W   0.333333770193438   0.666666215384150   0.500000009000000 1
ion W   0.583333770193438   0.666666215384150   0.500000009000000 1
ion W   0.833333770193438   0.666666215384150   0.500000009000000 1
ion W   0.083333770193438   0.916666215384150   0.500000009000000 1
ion W   0.333333770193438   0.916666215384150   0.500000009000000 1
ion W   0.583333770193438   0.916666215384150   0.500000009000000 1
ion W   0.833333770193438   0.916666215384150   0.500000009000000 1
ion S   0.166668108840782   0.083331876557926   0.413136339362868 1
ion S   0.166668108840782   0.083331876557926   0.586863678637132 1
ion S   0.416668108840782   0.083331876557926   0.413136339362868 1
ion S   0.416668108840782   0.083331876557926   0.586863678637132 1
ion S   0.666668108840782   0.083331876557926   0.413136339362868 1
ion S   0.666668108840782   0.083331876557926   0.586863678637132 1
ion S   0.916668108840782   0.083331876557926   0.413136339362868 1
ion S   0.916668108840782   0.083331876557926   0.586863678637132 1
ion S   0.166668108840782   0.333331876557926   0.413136339362868 1
ion S   0.166668108840782   0.333331876557926   0.586863678637132 1
ion S   0.416668108840782   0.333331876557926   0.413136339362868 1
ion S   0.416668108840782   0.333331876557926   0.586863678637132 1
ion S   0.666668108840782   0.333331876557926   0.413136339362868 1
ion S   0.666668108840782   0.333331876557926   0.586863678637132 1
ion S   0.916668108840782   0.333331876557926   0.413136339362868 1
ion S   0.916668108840782   0.333331876557926   0.586863678637132 1
ion S   0.166668108840782   0.583331876557926   0.413136339362868 1
ion S   0.166668108840782   0.583331876557926   0.586863678637132 1
ion S   0.416668108840782   0.583331876557926   0.413136339362868 1
ion S   0.416668108840782   0.583331876557926   0.586863678637132 1
ion S   0.666668108840782   0.583331876557926   0.413136339362868 1
ion S   0.666668108840782   0.583331876557926   0.586863678637132 1
ion S   0.916668108840782   0.583331876557926   0.413136339362868 1
ion S   0.916668108840782   0.583331876557926   0.586863678637132 1
ion S   0.166668108840782   0.833331876557926   0.413136339362868 1
ion S   0.166668108840782   0.833331876557926   0.586863678637132 1
ion S   0.416668108840782   0.833331876557926   0.413136339362868 1
ion S   0.416668108840782   0.833331876557926   0.586863678637132 1
ion S   0.666668108840782   0.833331876557926   0.413136339362868 1
ion S   0.666668108840782   0.833331876557926   0.586863678637132 1
ion S   0.916668108840782   0.833331876557926   0.413136339362868 1
ion S   0.916668108840782   0.833331876557926   0.586863678637132 1
ion-species GBRV/$ID_pbe.uspp
ion-width Ecut
ionic-minimize  \
	dirUpdateScheme      L-BFGS \
	linminMethod         DirUpdateRecommended \
	nIterations          500 \
	history              15 \
	knormThreshold       0.0001 \
	energyDiffThreshold  1e-06 \
	nEnergyDiff          2 \
	alphaTstart          1 \
	alphaTmin            1e-10 \
	updateTestStepSize   yes \
	alphaTreduceFactor   0.1 \
	alphaTincreaseFactor 3 \
	nAlphaAdjustMax      3 \
	wolfeEnergy          0.0001 \
	wolfeGradient        0.9 \
	fdTest               no
kpoint   0.000000000000   0.000000000000   0.000000000000  1.00000000000000
kpoint-folding 5 5 1 
latt-move-scale 1 1 1
latt-scale 1.88973 1.88973 1.88973 
lattice Triclinic 12.7007 12.7008 18.1461 90 90 120
lattice-minimize  \
	dirUpdateScheme      L-BFGS \
	linminMethod         DirUpdateRecommended \
	nIterations          0 \
	history              15 \
	knormThreshold       0 \
	energyDiffThreshold  1e-06 \
	nEnergyDiff          2 \
	alphaTstart          1 \
	alphaTmin            1e-10 \
	updateTestStepSize   yes \
	alphaTreduceFactor   0.1 \
	alphaTincreaseFactor 3 \
	nAlphaAdjustMax      3 \
	wolfeEnergy          0.0001 \
	wolfeGradient        0.9 \
	fdTest               no
lcao-params -1 1e-06 0.0073499
pcm-variant CANDLE
spintype z-spin
subspace-rotation-factor 1 yes
symmetries automatic
symmetry-threshold 0.0001



---------- Setting up symmetries ----------

Found 24 point-group symmetries of the bravais lattice
Found 192 space-group symmetries with basis
Applied RMS atom displacement 1.97026e-05 bohrs to make symmetries exact.

---------- Initializing the Grid ----------
R = 
[    24.0008   -12.0005          0  ]
[          0    20.7855          0  ]
[          0          0    34.2912  ]
unit cell volume = 17106.8
G =
[    0.26179   0.151145         -0  ]
[          0   0.302287          0  ]
[          0         -0    0.18323  ]
Minimum fftbox size, Smin = [  100  100  140  ]
Chosen fftbox size, S = [  100  100  140  ]

---------- Exchange Correlation functional ----------
Initalized PBE GGA exchange.
Initalized PBE GGA correlation.

---------- Setting up pseudopotentials ----------
Width of ionic core gaussian charges (only for fluid interactions / plotting) set to 0.397384

Reading pseudopotential file '/home/guoxy/vasp/jdftx-1.5.0/build/pseudopotentials/GBRV/w_pbe.uspp':
  Title: W.  Created by USPP 7.3.6 on 3-2-2014
  Reference state energy: -79.133630.  14 valence electrons in orbitals:
    |500>  occupation: 2  eigenvalue: -2.938934
    |510>  occupation: 6  eigenvalue: -1.620730
    |520>  occupation: 3.9  eigenvalue: -0.194511
    |600>  occupation: 2  eigenvalue: -0.234858
    |610>  occupation: 0  eigenvalue: -0.069444
  lMax: 3  lLocal: 3  QijEcut: 5
  8 projectors sampled on a log grid with 667 points:
    l: 0  eig: -2.938934  rCut: 1.45
    l: 0  eig: -0.234859  rCut: 1.45
    l: 0  eig: 0.500000  rCut: 1.45
    l: 1  eig: -1.620730  rCut: 1.5
    l: 1  eig: -0.069446  rCut: 1.5
    l: 2  eig: -0.194511  rCut: 1.7
    l: 2  eig: 0.150000  rCut: 1.7
    l: 3  eig: 0.500000  rCut: 2.3
  Partial core density with radius 1.2
  Transforming core density to a uniform radial grid of dG=0.02 with 1463 points.
  Transforming local potential to a uniform radial grid of dG=0.02 with 1463 points.
  Transforming nonlocal projectors to a uniform radial grid of dG=0.02 with 432 points.
  Transforming density augmentations to a uniform radial grid of dG=0.02 with 1463 points.
  Transforming atomic orbitals to a uniform radial grid of dG=0.02 with 432 points.
  Core radius for overlap checks: 2.30 bohrs.

Reading pseudopotential file '/home/guoxy/vasp/jdftx-1.5.0/build/pseudopotentials/GBRV/s_pbe.uspp':
  Title: S.  Created by USPP 7.3.6 on 1-4-15
  Reference state energy: -11.898476.  6 valence electrons in orbitals:
    |300>  occupation: 2  eigenvalue: -0.634167
    |310>  occupation: 4  eigenvalue: -0.257568
  lMax: 2  lLocal: 3  QijEcut: 6
  6 projectors sampled on a log grid with 635 points:
    l: 0  eig: -0.634161  rCut: 1.5
    l: 0  eig: 1.500000  rCut: 1.5
    l: 1  eig: -0.257567  rCut: 1.5
    l: 1  eig: 1.500000  rCut: 1.5
    l: 2  eig: -1.000000  rCut: 1.5
    l: 2  eig: 1.500000  rCut: 1.5
  Partial core density with radius 1.15
  Transforming core density to a uniform radial grid of dG=0.02 with 1463 points.
  Transforming local potential to a uniform radial grid of dG=0.02 with 1463 points.
  Transforming nonlocal projectors to a uniform radial grid of dG=0.02 with 432 points.
  Transforming density augmentations to a uniform radial grid of dG=0.02 with 1463 points.
  Transforming atomic orbitals to a uniform radial grid of dG=0.02 with 432 points.
  Core radius for overlap checks: 1.50 bohrs.

Initialized 2 species with 48 total atoms.

Folded 1 k-points by 5x5x1 to 25 k-points.

---------- Setting up k-points, bands, fillings ----------
Adding inversion symmetry to k-mesh for non-inversion-symmetric unit cell.
Reduced to 5 k-points under symmetry. 
Computing the number of bands and number of electrons
Calculating initial fillings.
nElectrons: 416.500000   nBands: 336   nStates: 10

----- Setting up reduced wavefunction bases (one per k-point) -----
average nbasis = 73092.360 , ideal nbasis = 73081.621

---------- Setting up coulomb interaction ----------
Fluid mode embedding: using embedded box, but periodic Coulomb kernel.
(Fluid response is responsible for (approximate) separation between periodic images.)
Setting up double-sized grid for truncated Coulomb potentials:
R = 
[    24.0008   -12.0005          0  ]
[          0    20.7855          0  ]
[          0          0    68.5823  ]
unit cell volume = 34213.6
G =
[    0.26179   0.151145         -0  ]
[          0   0.302287          0  ]
[          0         -0  0.0916152  ]
Chosen fftbox size, S = [  100  100  280  ]
Integer grid location selected as the embedding center:
   Grid: [  50  50  70  ]
   Lattice: [  0.5  0.5  0.5  ]
   Cartesian: [  6.00016  10.3928  17.1456  ]
Constructing Wigner-Seitz cell: 8 faces (6 quadrilaterals, 2 hexagons)
Range-separation parameter for embedded mesh potentials due to point charges: 0.624363 bohrs.

Initializing van der Waals corrections
	NOTE: vdW corrections apply only for interactions with fluid.
	 W:  C6:  815.23 Eh-a0^6  R0: 3.326 a0 (WARNING: beyond Grimme's data set)
	 S:  C6:   96.61 Eh-a0^6  R0: 3.180 a0

---------- Setting up ewald sum ----------
Optimum gaussian width for ewald sums = 6.793646 bohr.
Real space sum over 605 unit cells with max indices [  5  5  2  ]
Reciprocal space sum over 7875 terms with max indices [  7  7  17  ]

---------- Allocating electronic variables ----------
Initializing wave functions:  linear combination of atomic orbitals
W pseudo-atom occupations:   s ( 2 2 )  p ( 6 0 )  d ( 4 )
S pseudo-atom occupations:   s ( 2 )  p ( 4 )
	FillingsUpdate:  mu: +1.001236170  nElectrons: 416.500000  magneticMoment: [ Abs: 1.34245  Tot: +1.33595 ]
LCAOMinimize: Iter:   0  F: -1392.7182305419844397  |grad|_K:  2.309e-02  alpha:  1.000e+00
	FillingsUpdate:  mu: -0.587423330  nElectrons: 416.500000  magneticMoment: [ Abs: 0.37865  Tot: +0.31340 ]
LCAOMinimize: Iter:   1  F: -1398.5094655856328245  |grad|_K:  1.181e-02  alpha:  4.491e-01  linmin:  1.601e-01  cgtest: -2.060e+00  t[s]:    220.59
LCAOMinimize: 	Bad step direction: g.d > 0.
LCAOMinimize: 	Undoing step.
LCAOMinimize: 	Step failed: resetting search direction.
	FillingsUpdate:  mu: -0.587423330  nElectrons: 416.500000  magneticMoment: [ Abs: 0.37865  Tot: +0.31340 ]
LCAOMinimize: Iter:   2  F: -1398.5094655856328245  |grad|_K:  1.181e-02  alpha:  0.000e+00
	FillingsUpdate:  mu: -0.370585859  nElectrons: 416.500000  magneticMoment: [ Abs: 0.29198  Tot: +0.16114 ]
LCAOMinimize: Iter:   3  F: -1418.8560109714883311  |grad|_K:  7.066e-03  alpha:  1.764e-01  linmin: -4.180e-01  cgtest:  8.735e-01  t[s]:    339.49
LCAOMinimize: Encountered beta<0, resetting CG.
LCAOMinimize: 	Predicted alpha/alphaT>3.000000, increasing alphaT to 5.291806e-01.
	FillingsUpdate:  mu: -0.279301544  nElectrons: 416.500000  magneticMoment: [ Abs: 0.33078  Tot: +0.14841 ]
LCAOMinimize: Iter:   4  F: -1424.6699438327282223  |grad|_K:  4.917e-03  alpha:  1.095e-01  linmin: -4.295e-01  cgtest:  8.492e-01  t[s]:    428.46
LCAOMinimize: Encountered beta<0, resetting CG.
	FillingsUpdate:  mu: +0.154204501  nElectrons: 416.500000  magneticMoment: [ Abs: 0.41982  Tot: +0.10023 ]
LCAOMinimize: Iter:   5  F: -1426.7174717417344709  |grad|_K:  3.716e-03  alpha:  3.155e-01  linmin:  4.780e-01  cgtest: -8.085e-01  t[s]:    497.92
LCAOMinimize: 	Bad step direction: g.d > 0.
LCAOMinimize: 	Undoing step.
LCAOMinimize: 	Step failed: resetting search direction.
	FillingsUpdate:  mu: +0.154204501  nElectrons: 416.500000  magneticMoment: [ Abs: 0.41982  Tot: +0.10023 ]
LCAOMinimize: Iter:   6  F: -1426.7174717417344709  |grad|_K:  3.716e-03  alpha:  0.000e+00
	FillingsUpdate:  mu: -0.060344691  nElectrons: 416.500000  magneticMoment: [ Abs: 0.33420  Tot: +0.09319 ]
LCAOMinimize: Iter:   7  F: -1428.0315628981993541  |grad|_K:  1.085e-04  alpha:  1.816e-01  linmin:  3.482e-01  cgtest: -9.916e-01  t[s]:    616.28
	FillingsUpdate:  mu: -0.060403174  nElectrons: 416.500000  magneticMoment: [ Abs: 0.21592  Tot: +0.05284 ]
LCAOMinimize: Iter:   8  F: -1428.0320478466826444  |grad|_K:  1.184e-04  alpha:  5.146e-01  linmin:  3.483e-04  cgtest:  9.470e-01  t[s]:    685.91
	FillingsUpdate:  mu: -0.052119909  nElectrons: 416.500000  magneticMoment: [ Abs: 0.18275  Tot: +0.04221 ]
LCAOMinimize: Iter:   9  F: -1428.0335661075680491  |grad|_K:  1.159e-05  alpha:  1.890e-01  linmin: -2.684e-02  cgtest:  7.172e-03  t[s]:    755.19
LCAOMinimize: 	Predicted alpha/alphaT>3.000000, increasing alphaT to 5.668688e-01.
	FillingsUpdate:  mu: -0.051837492  nElectrons: 416.500000  magneticMoment: [ Abs: 0.07354  Tot: +0.01153 ]
LCAOMinimize: Iter:  10  F: -1428.0336340805611144  |grad|_K:  2.356e-06  alpha:  8.865e-01  linmin:  2.839e-03  cgtest: -3.120e-02  t[s]:    845.01
	FillingsUpdate:  mu: -0.051691538  nElectrons: 416.500000  magneticMoment: [ Abs: 0.02892  Tot: +0.00298 ]
LCAOMinimize: Iter:  11  F: -1428.0336366555643508  |grad|_K:  2.297e-06  alpha:  8.183e-01  linmin:  8.766e-05  cgtest:  3.098e-03  t[s]:    914.16
	FillingsUpdate:  mu: -0.051862562  nElectrons: 416.500000  magneticMoment: [ Abs: 0.01014  Tot: -0.00022 ]
LCAOMinimize: Iter:  12  F: -1428.0336374583480392  |grad|_K:  5.222e-07  alpha:  2.682e-01  linmin:  5.880e-04  cgtest: -3.451e-03  t[s]:    983.77
LCAOMinimize: 	Predicted alpha/alphaT>3.000000, increasing alphaT to 8.044858e-01.
	FillingsUpdate:  mu: -0.051852646  nElectrons: 416.500000  magneticMoment: [ Abs: 0.00195  Tot: -0.00041 ]
LCAOMinimize: Iter:  13  F: -1428.0336375941333245  |grad|_K:  9.030e-08  alpha:  8.773e-01  linmin:  9.712e-06  cgtest:  1.609e-03  t[s]:   1073.45
LCAOMinimize: Converged (|Delta F|<1.000000e-06 for 2 iters).
----- createFluidSolver() ----- (Fluid-side solver setup)
   Initializing fluid molecule 'H2O'
     Initializing site 'O'
       Electron density: proportional to exp(-r/0.36935)*erfc((r-0.51523)/0.36823) with norm 6.826
       Charge density: gaussian nuclear width 0.478731 with net site charge 0.826
       Polarizability: cuspless exponential with width 0.32 and norm 3.73
       Hard sphere radius: 2.57003 bohrs
       Positions in reference frame:
         [ +0.000000 +0.000000 +0.000000 ]
     Initializing site 'H'
       Electron density: proportional to exp(-r/0.34641)*erfc((r-0)/0.390882) with norm 0.587
       Charge density: gaussian nuclear width 0.377945 with net site charge -0.413
       Polarizability: cuspless exponential with width 0.39 and norm 3.3
       Positions in reference frame:
         [ +0.000000 -1.441945 +1.122523 ]
         [ +0.000000 +1.441945 +1.122523 ]
     Net charge: 0   dipole magnitude: 0.927204
     Initializing spherical shell mfKernel with radius 2.61727 Bohr
     deltaS corrections:
       site 'O': -7.54299
       site 'H': -6.83917
   Initializing fluid molecule 'Na+'
     Initializing site 'Na'
       Electron density: proportional to exp(-r/0.19682)*erfc((r-0.71491)/0.41314) with norm 8.1383
       Charge density: gaussian nuclear width 0.365347 with net site charge -1
       Hard sphere radius: 1.86327 bohrs
       Positions in reference frame:
         [ +0.000000 +0.000000 +0.000000 ]
     Net charge: -1   dipole magnitude: 0
     Initializing gaussian mfKernel with width: 1.55004 Bohr
     deltaS corrections:
       site 'Na': -22.3555
   Initializing fluid molecule 'F-'
     Initializing site 'F'
       Electron density: proportional to exp(-r/0.38886)*erfc((r-0)/0.438782) with norm 8
       Charge density: gaussian nuclear width 0.374796 with net site charge 1
       Hard sphere radius: 2.39995 bohrs
       Positions in reference frame:
         [ +0.000000 +0.000000 +0.000000 ]
     Net charge: 1   dipole magnitude: 0
     Initializing gaussian mfKernel with width: 1.59012 Bohr
     deltaS corrections:
       site 'F': -9.04335

Correction to mu due to finite nuclear width = -0.0120641
   Cavity determined by nc: 0.00142 and sigma: 0.707107
   Nonlocal vdW cavity from gaussian model electron density with norm = 8 and sigma = 0.993594 bohr
   Charge asymmetry in cavity with sensitivity pCavity = 36.5 e-bohr/Eh
   Electrostatic cavity expanded by eta = 1.46 bohrs
   Weighted density cavitation model constrained by Nbulk: 0.0049383 bohr^-3, Pvap: 3.14029 kPa, Rvdw: 2.61727 bohr and sigmaBulk: 4.62e-05 Eh/bohr^2 at T: 298 K.
   Weighted density dispersion model using vdW pair potentials with single solvent site with sqrtC6eff: 0.77 SI.


---- Citations for features of the code used in this run ----

   Software package:
      R. Sundararaman, K. Letchworth-Weaver, K.A. Schwarz, D. Gunceler, Y. Ozhabes and T.A. Arias, 'JDFTx: software for joint density-functional theory', SoftwareX 6, 278 (2017)

   gga-PBE exchange-correlation functional:
      J.P. Perdew, K. Burke and M. Ernzerhof, Phys. Rev. Lett. 77, 3865 (1996)

   Pseudopotentials:
      KF Garrity, JW Bennett, KM Rabe and D Vanderbilt, Comput. Mater. Sci. 81, 446 (2014)

   Truncated Coulomb potentials:
      R. Sundararaman and T.A. Arias, Phys. Rev. B 87, 165122 (2013)

   Van der Waals correction pair-potentials:
      S. Grimme, J. Comput. Chem. 27, 1787 (2006)

   Charge-asymmetric nonlocally-determined local-electric (CANDLE) solvation model:
      R. Sundararaman and W.A. Goddard III, J. Chem. Phys. 142, 064107 (2015)

   Total energy minimization with Auxiliary Hamiltonian:
      C. Freysoldt, S. Boeck, and J. Neugebauer, Phys. Rev. B 79, 241103(R) (2009)

This list may not be complete. Please suggest additional citations or
report any other bugs at https://github.com/shankar1729/jdftx/issues

Initialization completed successfully at t[s]:   1082.57

Fluid solver invoked on fresh (partially random / LCAO) wavefunctions
Running a vacuum solve first:

-------- Initial electronic minimization -----------
	FillingsUpdate:  mu: -0.051852646  nElectrons: 416.500000  magneticMoment: [ Abs: 0.00195  Tot: -0.00041 ]
ElecMinimize: Iter:   0  F: -1428.033637594146512  |grad|_K:  8.969e-05  alpha:  1.000e+00
	FillingsUpdate:  mu: +0.043443519  nElectrons: 416.500000  magneticMoment: [ Abs: 0.00125  Tot: -0.00010 ]
	SubspaceRotationAdjust: set factor to 1
ElecMinimize: Iter:   1  F: -1429.567486498691551  |grad|_K:  4.608e-05  alpha:  7.776e-01  linmin: -3.308e-05  t[s]:   1233.95
	FillingsUpdate:  mu: -0.019968150  nElectrons: 416.500000  magneticMoment: [ Abs: 0.00104  Tot: -0.00002 ]
	SubspaceRotationAdjust: set factor to 0.734
ElecMinimize: Iter:   2  F: -1429.808341543642427  |grad|_K:  3.431e-05  alpha:  4.697e-01  linmin:  2.343e-05  t[s]:   1326.59
	FillingsUpdate:  mu: +0.013180807  nElectrons: 416.500000  magneticMoment: [ Abs: 0.00082  Tot: +0.00001 ]
	SubspaceRotationAdjust: set factor to 0.507
ElecMinimize: Iter:   3  F: -1429.913588986337572  |grad|_K:  1.658e-05  alpha:  3.607e-01  linmin:  4.185e-05  t[s]:   1418.45
	FillingsUpdate:  mu: +0.003690386  nElectrons: 416.500000  magneticMoment: [ Abs: 0.00062  Tot: +0.00001 ]
	SubspaceRotationAdjust: set factor to 0.571
ElecMinimize: Iter:   4  F: -1429.950600878397381  |grad|_K:  1.036e-05  alpha:  5.529e-01  linmin:  4.940e-05  t[s]:   1510.49
	FillingsUpdate:  mu: -0.004046664  nElectrons: 416.500000  magneticMoment: [ Abs: 0.00040  Tot: +0.00000 ]
	SubspaceRotationAdjust: set factor to 0.62
ElecMinimize: Iter:   5  F: -1429.965335787834874  |grad|_K:  6.280e-06  alpha:  5.650e-01  linmin:  3.494e-05  t[s]:   1602.73
	FillingsUpdate:  mu: +0.001074653  nElectrons: 416.500000  magneticMoment: [ Abs: 0.00033  Tot: +0.00001 ]
	SubspaceRotationAdjust: set factor to 0.654
ElecMinimize: Iter:   6  F: -1429.970759031989928  |grad|_K:  4.112e-06  alpha:  5.619e-01  linmin:  1.347e-05  t[s]:   1695.26
	FillingsUpdate:  mu: -0.000505582  nElectrons: 416.500000  magneticMoment: [ Abs: 0.00024  Tot: +0.00000 ]
	SubspaceRotationAdjust: set factor to 0.832
ElecMinimize: Iter:   7  F: -1429.973141744580062  |grad|_K:  2.536e-06  alpha:  5.758e-01  linmin:  6.011e-06  t[s]:   1788.16
	FillingsUpdate:  mu: -0.001609925  nElectrons: 416.500000  magneticMoment: [ Abs: 0.00013  Tot: +0.00000 ]
	SubspaceRotationAdjust: set factor to 0.914
ElecMinimize: Iter:   8  F: -1429.973981787376033  |grad|_K:  1.505e-06  alpha:  5.322e-01  linmin:  3.664e-06  t[s]:   1879.69
	FillingsUpdate:  mu: -0.000433612  nElectrons: 416.500000  magneticMoment: [ Abs: 0.00008  Tot: +0.00000 ]
	SubspaceRotationAdjust: set factor to 0.796
ElecMinimize: Iter:   9  F: -1429.974255101789367  |grad|_K:  1.099e-06  alpha:  4.911e-01  linmin:  2.810e-06  t[s]:   1971.73
	FillingsUpdate:  mu: -0.001542675  nElectrons: 416.500000  magneticMoment: [ Abs: 0.00005  Tot: +0.00000 ]
	SubspaceRotationAdjust: set factor to 0.674
ElecMinimize: Iter:  10  F: -1429.974383304697994  |grad|_K:  6.290e-07  alpha:  4.321e-01  linmin:  2.893e-06  t[s]:   2063.52
	FillingsUpdate:  mu: -0.001401179  nElectrons: 416.500000  magneticMoment: [ Abs: 0.00003  Tot: +0.00000 ]
	SubspaceRotationAdjust: set factor to 0.77
ElecMinimize: Iter:  11  F: -1429.974438548021681  |grad|_K:  4.350e-07  alpha:  5.689e-01  linmin:  2.675e-06  t[s]:   2155.22
	FillingsUpdate:  mu: -0.001310438  nElectrons: 416.500000  magneticMoment: [ Abs: 0.00002  Tot: +0.00000 ]
	SubspaceRotationAdjust: set factor to 0.9
ElecMinimize: Iter:  12  F: -1429.974463892964195  |grad|_K:  3.003e-07  alpha:  5.454e-01  linmin:  1.198e-06  t[s]:   2247.39
	FillingsUpdate:  mu: -0.001554471  nElectrons: 416.500000  magneticMoment: [ Abs: 0.00002  Tot: +0.00000 ]
	SubspaceRotationAdjust: set factor to 0.851
ElecMinimize: Iter:  13  F: -1429.974476446146127  |grad|_K:  2.231e-07  alpha:  5.663e-01  linmin:  1.542e-06  t[s]:   2339.52
	FillingsUpdate:  mu: -0.001358731  nElectrons: 416.500000  magneticMoment: [ Abs: 0.00001  Tot: +0.00000 ]
	SubspaceRotationAdjust: set factor to 0.745
ElecMinimize: Iter:  14  F: -1429.974481878770803  |grad|_K:  1.453e-07  alpha:  4.440e-01  linmin:  1.925e-07  t[s]:   2431.35
	FillingsUpdate:  mu: -0.001412987  nElectrons: 416.500000  magneticMoment: [ Abs: 0.00002  Tot: +0.00000 ]
	SubspaceRotationAdjust: set factor to 0.788
ElecMinimize: Iter:  15  F: -1429.974484818782685  |grad|_K:  9.703e-08  alpha:  5.663e-01  linmin:  8.978e-07  t[s]:   2523.54
	FillingsUpdate:  mu: -0.001427868  nElectrons: 416.500000  magneticMoment: [ Abs: 0.00002  Tot: +0.00000 ]
	SubspaceRotationAdjust: set factor to 0.896
ElecMinimize: Iter:  16  F: -1429.974486261181937  |grad|_K:  7.398e-08  alpha:  6.240e-01  linmin:  4.659e-07  t[s]:   2615.66
	FillingsUpdate:  mu: -0.001383088  nElectrons: 416.500000  magneticMoment: [ Abs: 0.00002  Tot: +0.00000 ]
	SubspaceRotationAdjust: set factor to 0.927
ElecMinimize: Iter:  17  F: -1429.974486985120166  |grad|_K:  5.303e-08  alpha:  5.381e-01  linmin:  1.467e-07  t[s]:   2707.80
	FillingsUpdate:  mu: -0.001423765  nElectrons: 416.500000  magneticMoment: [ Abs: 0.00002  Tot: +0.00000 ]
	SubspaceRotationAdjust: set factor to 0.882
ElecMinimize: Iter:  18  F: -1429.974487332322042  |grad|_K:  3.651e-08  alpha:  5.018e-01  linmin:  8.984e-08  t[s]:   2800.03
	FillingsUpdate:  mu: -0.001403288  nElectrons: 416.500000  magneticMoment: [ Abs: 0.00002  Tot: +0.00000 ]
	SubspaceRotationAdjust: set factor to 0.835
ElecMinimize: Iter:  19  F: -1429.974487487374518  |grad|_K:  2.332e-08  alpha:  4.728e-01  linmin:  3.908e-08  t[s]:   2892.17
	FillingsUpdate:  mu: -0.001414469  nElectrons: 416.500000  magneticMoment: [ Abs: 0.00001  Tot: +0.00000 ]
	SubspaceRotationAdjust: set factor to 0.9
ElecMinimize: Iter:  20  F: -1429.974487562269360  |grad|_K:  1.552e-08  alpha:  5.598e-01  linmin:  8.133e-08  t[s]:   2984.63
	FillingsUpdate:  mu: -0.001415567  nElectrons: 416.500000  magneticMoment: [ Abs: 0.00001  Tot: +0.00000 ]
	SubspaceRotationAdjust: set factor to 1.05
ElecMinimize: Iter:  21  F: -1429.974487594572565  |grad|_K:  1.088e-08  alpha:  5.457e-01  linmin:  5.635e-08  t[s]:   3076.89
	FillingsUpdate:  mu: -0.001411881  nElectrons: 416.500000  magneticMoment: [ Abs: 0.00001  Tot: +0.00000 ]
	SubspaceRotationAdjust: set factor to 1.14
ElecMinimize: Iter:  22  F: -1429.974487610862070  |grad|_K:  7.836e-09  alpha:  5.599e-01  linmin:  6.442e-08  t[s]:   3168.80
	FillingsUpdate:  mu: -0.001417321  nElectrons: 416.500000  magneticMoment: [ Abs: 0.00000  Tot: +0.00000 ]
	SubspaceRotationAdjust: set factor to 1.02
ElecMinimize: Iter:  23  F: -1429.974487618141211  |grad|_K:  5.759e-09  alpha:  4.805e-01  linmin: -3.603e-08  t[s]:   3260.78
	FillingsUpdate:  mu: -0.001411931  nElectrons: 416.500000  magneticMoment: [ Abs: 0.00000  Tot: +0.00000 ]
	SubspaceRotationAdjust: set factor to 0.813
ElecMinimize: Iter:  24  F: -1429.974487621486105  |grad|_K:  4.225e-09  alpha:  4.128e-01  linmin:  7.642e-09  t[s]:   3352.84
ElecMinimize: Converged (|Delta F|<1.000000e-08 for 2 iters).
Setting wave functions to eigenvectors of Hamiltonian
Vacuum energy after initial minimize, F = -1429.974487621486105

	Linear fluid (dielectric constant: 78.4, screening length: 5.74355 Bohr) occupying 0.753872 of unit cell:	Completed after 13 iterations at t[s]:   3374.30

-------- Electronic minimization -----------
	Linear fluid (dielectric constant: 78.4, screening length: 5.74355 Bohr) occupying 0.753872 of unit cell:	Completed after 0 iterations at t[s]:   3398.48
	FillingsUpdate:  mu: -0.133938093  nElectrons: 416.500000  magneticMoment: [ Abs: 0.00000  Tot: +0.00000 ]
ElecMinimize: Iter:   0  F: -1430.024000421527944  |grad|_K:  9.903e-07  alpha:  1.000e+00
	Linear fluid (dielectric constant: 78.4, screening length: 5.74355 Bohr) occupying 0.754349 of unit cell:	Completed after 9 iterations at t[s]:   3471.83
	Linear fluid (dielectric constant: 78.4, screening length: 5.74355 Bohr) occupying 0.754132 of unit cell:	Completed after 9 iterations at t[s]:   3503.70
	FillingsUpdate:  mu: -0.135475577  nElectrons: 416.500000  magneticMoment: [ Abs: 0.00006  Tot: +0.00000 ]
	SubspaceRotationAdjust: set factor to 0.513
ElecMinimize: Iter:   1  F: -1430.024127511864435  |grad|_K:  8.965e-07  alpha:  5.304e-01  linmin:  3.457e-07  t[s]:   3546.76
	Linear fluid (dielectric constant: 78.4, screening length: 5.74355 Bohr) occupying 0.754521 of unit cell:	Completed after 8 iterations at t[s]:   3575.29
	Linear fluid (dielectric constant: 78.4, screening length: 5.74355 Bohr) occupying 0.754490 of unit cell:	Completed after 2 iterations at t[s]:   3606.46
	FillingsUpdate:  mu: -0.134247154  nElectrons: 416.500000  magneticMoment: [ Abs: 0.00015  Tot: -0.00000 ]
	SubspaceRotationAdjust: set factor to 0.447
ElecMinimize: Iter:   2  F: -1430.024223209336924  |grad|_K:  2.150e-07  alpha:  4.866e-01  linmin: -1.695e-06  t[s]:   3648.06
	Linear fluid (dielectric constant: 78.4, screening length: 5.74355 Bohr) occupying 0.754519 of unit cell:	Completed after 2 iterations at t[s]:   3676.07
	Linear fluid (dielectric constant: 78.4, screening length: 5.74355 Bohr) occupying 0.754532 of unit cell:	Completed after 2 iterations at t[s]:   3706.13
	FillingsUpdate:  mu: -0.134248486  nElectrons: 416.500000  magneticMoment: [ Abs: 0.00015  Tot: -0.00000 ]
	SubspaceRotationAdjust: set factor to 0.449
ElecMinimize: Iter:   3  F: -1430.024231249954710  |grad|_K:  1.392e-07  alpha:  6.994e-01  linmin: -7.030e-07  t[s]:   3747.63
	Linear fluid (dielectric constant: 78.4, screening length: 5.74355 Bohr) occupying 0.754555 of unit cell:	Completed after 3 iterations at t[s]:   3775.24
	Linear fluid (dielectric constant: 78.4, screening length: 5.74355 Bohr) occupying 0.754554 of unit cell:	Completed after 0 iterations at t[s]:   3804.76
	FillingsUpdate:  mu: -0.134145780  nElectrons: 416.500000  magneticMoment: [ Abs: 0.00013  Tot: -0.00000 ]
	SubspaceRotationAdjust: set factor to 0.455
ElecMinimize: Iter:   4  F: -1430.024234377186531  |grad|_K:  9.385e-08  alpha:  6.533e-01  linmin: -2.426e-07  t[s]:   3846.48
	Linear fluid (dielectric constant: 78.4, screening length: 5.74355 Bohr) occupying 0.754564 of unit cell:	Completed after 0 iterations at t[s]:   3874.00
	Linear fluid (dielectric constant: 78.4, screening length: 5.74355 Bohr) occupying 0.754564 of unit cell:	Completed after 0 iterations at t[s]:   3902.57
	FillingsUpdate:  mu: -0.134145729  nElectrons: 416.500000  magneticMoment: [ Abs: 0.00010  Tot: -0.00000 ]
	SubspaceRotationAdjust: set factor to 0.543
ElecMinimize: Iter:   5  F: -1430.024235814449867  |grad|_K:  6.936e-08  alpha:  6.625e-01  linmin:  1.864e-07  t[s]:   3943.17
	Linear fluid (dielectric constant: 78.4, screening length: 5.74355 Bohr) occupying 0.754566 of unit cell:	Completed after 2 iterations at t[s]:   3971.39
	Linear fluid (dielectric constant: 78.4, screening length: 5.74355 Bohr) occupying 0.754565 of unit cell:	Completed after 0 iterations at t[s]:   4000.87
	FillingsUpdate:  mu: -0.134261369  nElectrons: 416.500000  magneticMoment: [ Abs: 0.00008  Tot: -0.00000 ]
	SubspaceRotationAdjust: set factor to 0.486
ElecMinimize: Iter:   6  F: -1430.024236168731250  |grad|_K:  6.096e-08  alpha:  3.575e-01  linmin:  8.082e-06  t[s]:   4041.85
	Linear fluid (dielectric constant: 78.4, screening length: 5.74355 Bohr) occupying 0.754564 of unit cell:	Completed after 2 iterations at t[s]:   4069.74
	Linear fluid (dielectric constant: 78.4, screening length: 5.74355 Bohr) occupying 0.754564 of unit cell:	Completed after 0 iterations at t[s]:   4099.72
	FillingsUpdate:  mu: -0.134198047  nElectrons: 416.500000  magneticMoment: [ Abs: 0.00007  Tot: -0.00000 ]
	SubspaceRotationAdjust: set factor to 0.508
ElecMinimize: Iter:   7  F: -1430.024236356923211  |grad|_K:  3.673e-08  alpha:  2.541e-01  linmin: -7.258e-06  t[s]:   4140.44
	Linear fluid (dielectric constant: 78.4, screening length: 5.74355 Bohr) occupying 0.754563 of unit cell:	Completed after 0 iterations at t[s]:   4167.80
	Linear fluid (dielectric constant: 78.4, screening length: 5.74355 Bohr) occupying 0.754562 of unit cell:	Completed after 0 iterations at t[s]:   4196.76
	FillingsUpdate:  mu: -0.134198229  nElectrons: 416.500000  magneticMoment: [ Abs: 0.00005  Tot: -0.00000 ]
	SubspaceRotationAdjust: set factor to 0.555
ElecMinimize: Iter:   8  F: -1430.024236508332933  |grad|_K:  2.670e-08  alpha:  4.211e-01  linmin:  7.614e-08  t[s]:   4237.34
	Linear fluid (dielectric constant: 78.4, screening length: 5.74355 Bohr) occupying 0.754559 of unit cell:	Completed after 0 iterations at t[s]:   4264.89
	Linear fluid (dielectric constant: 78.4, screening length: 5.74355 Bohr) occupying 0.754558 of unit cell:	Completed after 0 iterations at t[s]:   4293.66
	FillingsUpdate:  mu: -0.134198111  nElectrons: 416.500000  magneticMoment: [ Abs: 0.00004  Tot: -0.00000 ]
	SubspaceRotationAdjust: set factor to 0.586
ElecMinimize: Iter:   9  F: -1430.024236603063855  |grad|_K:  1.869e-08  alpha:  5.411e-01  linmin:  1.854e-07  t[s]:   4334.47
	Linear fluid (dielectric constant: 78.4, screening length: 5.74355 Bohr) occupying 0.754556 of unit cell:	Completed after 0 iterations at t[s]:   4362.15
	Linear fluid (dielectric constant: 78.4, screening length: 5.74355 Bohr) occupying 0.754556 of unit cell:	Completed after 0 iterations at t[s]:   4390.87
	FillingsUpdate:  mu: -0.134197815  nElectrons: 416.500000  magneticMoment: [ Abs: 0.00002  Tot: -0.00000 ]
	SubspaceRotationAdjust: set factor to 0.625
ElecMinimize: Iter:  10  F: -1430.024236647259386  |grad|_K:  1.257e-08  alpha:  5.154e-01  linmin:  1.059e-07  t[s]:   4431.97
	Linear fluid (dielectric constant: 78.4, screening length: 5.74355 Bohr) occupying 0.754555 of unit cell:	Completed after 0 iterations at t[s]:   4459.33
	Linear fluid (dielectric constant: 78.4, screening length: 5.74355 Bohr) occupying 0.754555 of unit cell:	Completed after 0 iterations at t[s]:   4488.52
	FillingsUpdate:  mu: -0.134194958  nElectrons: 416.500000  magneticMoment: [ Abs: 0.00002  Tot: -0.00000 ]
	SubspaceRotationAdjust: set factor to 0.734
ElecMinimize: Iter:  11  F: -1430.024236648717988  |grad|_K:  7.905e-09  alpha:  2.884e-01  linmin: -2.685e-05  t[s]:   4529.95
	Linear fluid (dielectric constant: 78.4, screening length: 5.74355 Bohr) occupying 0.754555 of unit cell:	Completed after 0 iterations at t[s]:   4557.57
	Linear fluid (dielectric constant: 78.4, screening length: 5.74355 Bohr) occupying 0.754555 of unit cell:	Completed after 0 iterations at t[s]:   4586.37
	FillingsUpdate:  mu: -0.134194784  nElectrons: 416.500000  magneticMoment: [ Abs: 0.00001  Tot: -0.00000 ]
	SubspaceRotationAdjust: set factor to 0.848
ElecMinimize: Iter:  12  F: -1430.024236658162181  |grad|_K:  7.196e-09  alpha:  4.430e-01  linmin: -1.455e-07  t[s]:   4627.77
ElecMinimize: Converged (|Delta F|<1.000000e-08 for 2 iters).
Setting wave functions to eigenvectors of Hamiltonian
Single-point solvation energy estimate, DeltaF = -0.049749036676076

# Ionic positions in lattice coordinates:
ion W   0.083334440402778   0.166665545055556   0.500000009000000 1
ion W   0.333334440402778   0.166665545055556   0.500000009000000 1
ion W   0.583334440402778   0.166665545055556   0.500000009000000 1
ion W   0.833334440402778   0.166665545055556   0.500000009000000 1
ion W   0.083334440402778   0.416665545055556   0.500000009000000 1
ion W   0.333334440402778   0.416665545055556   0.500000009000000 1
ion W   0.583334440402778   0.416665545055556   0.500000009000000 1
ion W   0.833334440402778   0.416665545055556   0.500000009000000 1
ion W   0.083334440402778   0.666665545055556   0.500000009000000 1
ion W   0.333334440402778   0.666665545055556   0.500000009000000 1
ion W   0.583334440402778   0.666665545055556   0.500000009000000 1
ion W   0.833334440402778   0.666665545055556   0.500000009000000 1
ion W   0.083334440402778   0.916665545055556   0.500000009000000 1
ion W   0.333334440402778   0.916665545055556   0.500000009000000 1
ion W   0.583334440402778   0.916665545055556   0.500000009000000 1
ion W   0.833334440402778   0.916665545055556   0.500000009000000 1
ion S   0.166667773736112   0.083332211722223   0.413136339362868 1
ion S   0.166667773736112   0.083332211722223   0.586863678637132 1
ion S   0.416667773736112   0.083332211722223   0.413136339362868 1
ion S   0.416667773736112   0.083332211722223   0.586863678637132 1
ion S   0.666667773736112   0.083332211722223   0.413136339362868 1
ion S   0.666667773736112   0.083332211722223   0.586863678637132 1
ion S   0.916667773736112   0.083332211722223   0.413136339362868 1
ion S   0.916667773736112   0.083332211722223   0.586863678637132 1
ion S   0.166667773736112   0.333332211722223   0.413136339362868 1
ion S   0.166667773736112   0.333332211722223   0.586863678637132 1
ion S   0.416667773736112   0.333332211722223   0.413136339362868 1
ion S   0.416667773736112   0.333332211722223   0.586863678637132 1
ion S   0.666667773736112   0.333332211722223   0.413136339362868 1
ion S   0.666667773736112   0.333332211722223   0.586863678637132 1
ion S   0.916667773736112   0.333332211722223   0.413136339362868 1
ion S   0.916667773736112   0.333332211722223   0.586863678637132 1
ion S   0.166667773736112   0.583332211722223   0.413136339362868 1
ion S   0.166667773736112   0.583332211722223   0.586863678637132 1
ion S   0.416667773736112   0.583332211722223   0.413136339362868 1
ion S   0.416667773736112   0.583332211722223   0.586863678637132 1
ion S   0.666667773736112   0.583332211722223   0.413136339362868 1
ion S   0.666667773736112   0.583332211722223   0.586863678637132 1
ion S   0.916667773736112   0.583332211722223   0.413136339362868 1
ion S   0.916667773736112   0.583332211722223   0.586863678637132 1
ion S   0.166667773736112   0.833332211722223   0.413136339362868 1
ion S   0.166667773736112   0.833332211722223   0.586863678637132 1
ion S   0.416667773736112   0.833332211722223   0.413136339362868 1
ion S   0.416667773736112   0.833332211722223   0.586863678637132 1
ion S   0.666667773736112   0.833332211722223   0.413136339362868 1
ion S   0.666667773736112   0.833332211722223   0.586863678637132 1
ion S   0.916667773736112   0.833332211722223   0.413136339362868 1
ion S   0.916667773736112   0.833332211722223   0.586863678637132 1


# Forces in Lattice coordinates:
force W   0.000000000000000   0.000000000000000   0.000000000000000 1
force W  -0.000000000000000   0.000000000000000  -0.000000000000000 1
force W   0.000000000000000   0.000000000000000  -0.000000000000000 1
force W   0.000000000000000   0.000000000000000   0.000000000000000 1
force W  -0.000000000000000   0.000000000000000  -0.000000000000000 1
force W  -0.000000000000000  -0.000000000000000  -0.000000000000000 1
force W   0.000000000000000  -0.000000000000000  -0.000000000000000 1
force W  -0.000000000000000   0.000000000000000  -0.000000000000000 1
force W   0.000000000000000   0.000000000000000  -0.000000000000000 1
force W  -0.000000000000000   0.000000000000000   0.000000000000000 1
force W   0.000000000000000   0.000000000000000  -0.000000000000000 1
force W  -0.000000000000000  -0.000000000000000  -0.000000000000000 1
force W   0.000000000000000  -0.000000000000000   0.000000000000000 1
force W   0.000000000000000   0.000000000000000   0.000000000000000 1
force W  -0.000000000000000   0.000000000000000   0.000000000000000 1
force W   0.000000000000000   0.000000000000000  -0.000000000000000 1
force S  -0.000000000000000   0.000000000000000  -0.016834308846459 1
force S   0.000000000000000  -0.000000000000000   0.016834308846344 1
force S  -0.000000000000000   0.000000000000000  -0.016834308846346 1
force S   0.000000000000000  -0.000000000000000   0.016834308846345 1
force S  -0.000000000000000   0.000000000000000  -0.016834308846345 1
force S   0.000000000000000   0.000000000000000   0.016834308846346 1
force S  -0.000000000000000   0.000000000000000  -0.016834308846345 1
force S   0.000000000000000  -0.000000000000000   0.016834308846459 1
force S  -0.000000000000000   0.000000000000000  -0.016834308846458 1
force S   0.000000000000000   0.000000000000000   0.016834308846459 1
force S  -0.000000000000000   0.000000000000000  -0.016834308846231 1
force S   0.000000000000000   0.000000000000000   0.016834308846459 1
force S  -0.000000000000000   0.000000000000000  -0.016834308846345 1
force S   0.000000000000000   0.000000000000000   0.016834308846345 1
force S  -0.000000000000000   0.000000000000000  -0.016834308846231 1
force S   0.000000000000000  -0.000000000000000   0.016834308846233 1
force S  -0.000000000000000   0.000000000000000  -0.016834308846344 1
force S   0.000000000000000  -0.000000000000000   0.016834308846233 1
force S  -0.000000000000000   0.000000000000000  -0.016834308846345 1
force S   0.000000000000000  -0.000000000000000   0.016834308846345 1
force S  -0.000000000000000   0.000000000000000  -0.016834308846459 1
force S   0.000000000000000  -0.000000000000000   0.016834308846459 1
force S  -0.000000000000000   0.000000000000000  -0.016834308846345 1
force S   0.000000000000000  -0.000000000000000   0.016834308846345 1
force S  -0.000000000000000   0.000000000000000  -0.016834308846345 1
force S   0.000000000000000  -0.000000000000000   0.016834308846345 1
force S  -0.000000000000000   0.000000000000000  -0.016834308846460 1
force S   0.000000000000000  -0.000000000000000   0.016834308846347 1
force S  -0.000000000000000   0.000000000000000  -0.016834308846345 1
force S   0.000000000000000   0.000000000000000   0.016834308846459 1
force S  -0.000000000000000   0.000000000000000  -0.016834308846459 1
force S   0.000000000000000  -0.000000000000000   0.016834308846458 1

# Energy components:
   A_diel =       -0.0439439130985568
   Eewald =     8742.7957270371007326
       EH =     9916.1486787869125692
     Eloc =   -20172.8171795888119959
      Enl =     -179.1443303060734422
      Exc =     -465.6585753539234815
 Exc_core =      230.1592926414743374
       KE =      498.5531559273431412
  MuShift =       -0.0060320336267309
-------------------------------------
     Etot =    -1430.0132068027037349
       TS =        0.0110298554584873
-------------------------------------
        F =    -1430.0242366581621809

IonicMinimize: Iter:   0  F: -1430.024236658162181  |grad|_K:  2.314e-04  t[s]:   4646.07

#--- Lowdin population analysis ---
# oxidation-state W -0.538 -0.538 -0.538 -0.538 -0.538 -0.538 -0.538 -0.538 -0.538 -0.538 -0.538 -0.538 -0.538 -0.538 -0.538 -0.538
# magnetic-moments W -0.000 -0.000 -0.000 -0.000 -0.000 -0.000 -0.000 -0.000 -0.000 -0.000 -0.000 -0.000 -0.000 -0.000 -0.000 -0.000
# oxidation-state S +0.321 +0.321 +0.321 +0.321 +0.321 +0.321 +0.321 +0.321 +0.321 +0.321 +0.321 +0.321 +0.321 +0.321 +0.321 +0.321 +0.321 +0.321 +0.321 +0.321 +0.321 +0.321 +0.321 +0.321 +0.321 +0.321 +0.321 +0.321 +0.321 +0.321 +0.321 +0.321
# magnetic-moments S -0.000 -0.000 -0.000 -0.000 -0.000 -0.000 -0.000 -0.000 -0.000 -0.000 -0.000 -0.000 -0.000 -0.000 -0.000 -0.000 -0.000 -0.000 -0.000 -0.000 -0.000 -0.000 -0.000 -0.000 -0.000 -0.000 -0.000 -0.000 -0.000 -0.000 -0.000 -0.000

	Linear fluid (dielectric constant: 78.4, screening length: 5.74355 Bohr) occupying 0.754539 of unit cell:	Completed after 2 iterations at t[s]:   4674.34

-------- Electronic minimization -----------
	Linear fluid (dielectric constant: 78.4, screening length: 5.74355 Bohr) occupying 0.754539 of unit cell:	Completed after 0 iterations at t[s]:   4697.62
	FillingsUpdate:  mu: -0.134148914  nElectrons: 416.500000  magneticMoment: [ Abs: 0.00002  Tot: -0.00000 ]
ElecMinimize: Iter:   0  F: -1430.024240988878319  |grad|_K:  1.018e-07  alpha:  1.000e+00
	Linear fluid (dielectric constant: 78.4, screening length: 5.74355 Bohr) occupying 0.754537 of unit cell:	Completed after 3 iterations at t[s]:   4769.87
	Linear fluid (dielectric constant: 78.4, screening length: 5.74355 Bohr) occupying 0.754538 of unit cell:	Completed after 1 iterations at t[s]:   4800.19
	FillingsUpdate:  mu: -0.134286758  nElectrons: 416.500000  magneticMoment: [ Abs: 0.00001  Tot: -0.00000 ]
	SubspaceRotationAdjust: set factor to 0.563
ElecMinimize: Iter:   1  F: -1430.024242254793535  |grad|_K:  7.274e-08  alpha:  4.701e-01  linmin:  1.735e-04  t[s]:   4841.43
	Linear fluid (dielectric constant: 78.4, screening length: 5.74355 Bohr) occupying 0.754541 of unit cell:	Completed after 2 iterations at t[s]:   4869.07
	Linear fluid (dielectric constant: 78.4, screening length: 5.74355 Bohr) occupying 0.754541 of unit cell:	Completed after 0 iterations at t[s]:   4898.79
	FillingsUpdate:  mu: -0.134207721  nElectrons: 416.500000  magneticMoment: [ Abs: 0.00001  Tot: -0.00000 ]
	SubspaceRotationAdjust: set factor to 0.48
ElecMinimize: Iter:   2  F: -1430.024242789819255  |grad|_K:  2.562e-08  alpha:  4.175e-01  linmin:  7.852e-05  t[s]:   4939.93
	Linear fluid (dielectric constant: 78.4, screening length: 5.74355 Bohr) occupying 0.754542 of unit cell:	Completed after 0 iterations at t[s]:   4967.20
	Linear fluid (dielectric constant: 78.4, screening length: 5.74355 Bohr) occupying 0.754542 of unit cell:	Completed after 0 iterations at t[s]:   4996.14
	FillingsUpdate:  mu: -0.134207724  nElectrons: 416.500000  magneticMoment: [ Abs: 0.00001  Tot: -0.00000 ]
	SubspaceRotationAdjust: set factor to 0.692
ElecMinimize: Iter:   3  F: -1430.024242909064469  |grad|_K:  1.401e-08  alpha:  7.510e-01  linmin:  1.967e-08  t[s]:   5036.95
	Linear fluid (dielectric constant: 78.4, screening length: 5.74355 Bohr) occupying 0.754543 of unit cell:	Completed after 2 iterations at t[s]:   5064.47
	Linear fluid (dielectric constant: 78.4, screening length: 5.74355 Bohr) occupying 0.754542 of unit cell:	Completed after 0 iterations at t[s]:   5094.20
ElecMinimize: 	Step increased F by 3.181549e-08, reducing alpha to 1.792061e-02.
	Linear fluid (dielectric constant: 78.4, screening length: 5.74355 Bohr) occupying 0.754542 of unit cell:	Completed after 0 iterations at t[s]:   5157.77
ElecMinimize: 	Step increased F by 2.785396e-08, reducing alpha to 1.792061e-03.
	Linear fluid (dielectric constant: 78.4, screening length: 5.74355 Bohr) occupying 0.754542 of unit cell:	Completed after 0 iterations at t[s]:   5221.12
ElecMinimize: 	Step increased F by 2.769889e-08, reducing alpha to 1.792061e-04.
ElecMinimize: 	Step failed to reduce F after 3 attempts. Quitting step.
ElecMinimize: 	Undoing step.
	Linear fluid (dielectric constant: 78.4, screening length: 5.74355 Bohr) occupying 0.754542 of unit cell:	Completed after 0 iterations at t[s]:   5284.62
ElecMinimize: 	Step failed: resetting search direction.
	FillingsUpdate:  mu: -0.134225548  nElectrons: 416.500000  magneticMoment: [ Abs: 0.00001  Tot: -0.00000 ]
	SubspaceRotationAdjust: set factor to 0.607
ElecMinimize: Iter:   4  F: -1430.024242881385135  |grad|_K:  2.434e-08  alpha:  1.792e-04
	Linear fluid (dielectric constant: 78.4, screening length: 5.74355 Bohr) occupying 0.754543 of unit cell:	Completed after 3 iterations at t[s]:   5353.46
	Linear fluid (dielectric constant: 78.4, screening length: 5.74355 Bohr) occupying 0.754542 of unit cell:	Completed after 0 iterations at t[s]:   5383.41
	FillingsUpdate:  mu: -0.134157760  nElectrons: 416.500000  magneticMoment: [ Abs: 0.00001  Tot: -0.00000 ]
	SubspaceRotationAdjust: set factor to 0.378
ElecMinimize: Iter:   5  F: -1430.024242965954727  |grad|_K:  4.053e-08  alpha:  2.085e-01  linmin:  4.599e-04  t[s]:   5424.07
ElecMinimize: 	Bad step direction: g.d > 0.
ElecMinimize: 	Undoing step.
	Linear fluid (dielectric constant: 78.4, screening length: 5.74355 Bohr) occupying 0.754542 of unit cell:	Completed after 0 iterations at t[s]:   5451.82
ElecMinimize: 	Step failed: resetting search direction.
	FillingsUpdate:  mu: -0.134157760  nElectrons: 416.500000  magneticMoment: [ Abs: 0.00001  Tot: -0.00000 ]
	SubspaceRotationAdjust: set factor to 0.263
ElecMinimize: Iter:   6  F: -1430.024242965956091  |grad|_K:  3.382e-08  alpha:  0.000e+00
	Linear fluid (dielectric constant: 78.4, screening length: 5.74355 Bohr) occupying 0.754542 of unit cell:	Completed after 1 iterations at t[s]:   5520.34
	Linear fluid (dielectric constant: 78.4, screening length: 5.74355 Bohr) occupying 0.754542 of unit cell:	Completed after 0 iterations at t[s]:   5549.34
ElecMinimize: 	Step increased F by 7.188510e-08, reducing alpha to 5.885174e-03.
	Linear fluid (dielectric constant: 78.4, screening length: 5.74355 Bohr) occupying 0.754542 of unit cell:	Completed after 0 iterations at t[s]:   5612.90
ElecMinimize: 	Step increased F by 6.655705e-08, reducing alpha to 5.885174e-04.
	Linear fluid (dielectric constant: 78.4, screening length: 5.74355 Bohr) occupying 0.754542 of unit cell:	Completed after 0 iterations at t[s]:   5676.40
ElecMinimize: 	Step increased F by 6.609957e-08, reducing alpha to 5.885174e-05.
ElecMinimize: 	Step failed to reduce F after 3 attempts. Quitting step.
ElecMinimize: 	Undoing step.
	Linear fluid (dielectric constant: 78.4, screening length: 5.74355 Bohr) occupying 0.754542 of unit cell:	Completed after 0 iterations at t[s]:   5739.60
ElecMinimize: 	Step failed along negative gradient direction.
ElecMinimize: Probably at roundoff error limit. (Stopping)
Setting wave functions to eigenvectors of Hamiltonian

# Ionic positions in lattice coordinates:
ion W   0.083334440402778   0.166665545055556   0.500000009000000 1
ion W   0.333334440402778   0.166665545055556   0.500000009000000 1
ion W   0.583334440402778   0.166665545055556   0.500000009000000 1
ion W   0.833334440402778   0.166665545055556   0.500000009000000 1
ion W   0.083334440402778   0.416665545055556   0.500000009000000 1
ion W   0.333334440402778   0.416665545055556   0.500000009000000 1
ion W   0.583334440402778   0.416665545055556   0.500000009000000 1
ion W   0.833334440402778   0.416665545055556   0.500000009000000 1
ion W   0.083334440402778   0.666665545055556   0.500000009000000 1
ion W   0.333334440402778   0.666665545055556   0.500000009000000 1
ion W   0.583334440402778   0.666665545055556   0.500000009000000 1
ion W   0.833334440402778   0.666665545055556   0.500000009000000 1
ion W   0.083334440402778   0.916665545055556   0.500000009000000 1
ion W   0.333334440402778   0.916665545055556   0.500000009000000 1
ion W   0.583334440402778   0.916665545055556   0.500000009000000 1
ion W   0.833334440402778   0.916665545055556   0.500000009000000 1
ion S   0.166667773736112   0.083332211722223   0.413122023055499 1
ion S   0.166667773736112   0.083332211722223   0.586877994944501 1
ion S   0.416667773736112   0.083332211722223   0.413122023055499 1
ion S   0.416667773736112   0.083332211722223   0.586877994944501 1
ion S   0.666667773736112   0.083332211722223   0.413122023055499 1
ion S   0.666667773736112   0.083332211722223   0.586877994944501 1
ion S   0.916667773736112   0.083332211722223   0.413122023055499 1
ion S   0.916667773736112   0.083332211722223   0.586877994944501 1
ion S   0.166667773736112   0.333332211722223   0.413122023055499 1
ion S   0.166667773736112   0.333332211722223   0.586877994944501 1
ion S   0.416667773736112   0.333332211722223   0.413122023055499 1
ion S   0.416667773736112   0.333332211722223   0.586877994944501 1
ion S   0.666667773736112   0.333332211722223   0.413122023055499 1
ion S   0.666667773736112   0.333332211722223   0.586877994944501 1
ion S   0.916667773736112   0.333332211722223   0.413122023055499 1
ion S   0.916667773736112   0.333332211722223   0.586877994944501 1
ion S   0.166667773736112   0.583332211722223   0.413122023055499 1
ion S   0.166667773736112   0.583332211722223   0.586877994944501 1
ion S   0.416667773736112   0.583332211722223   0.413122023055499 1
ion S   0.416667773736112   0.583332211722223   0.586877994944501 1
ion S   0.666667773736112   0.583332211722223   0.413122023055499 1
ion S   0.666667773736112   0.583332211722223   0.586877994944501 1
ion S   0.916667773736112   0.583332211722223   0.413122023055499 1
ion S   0.916667773736112   0.583332211722223   0.586877994944501 1
ion S   0.166667773736112   0.833332211722223   0.413122023055499 1
ion S   0.166667773736112   0.833332211722223   0.586877994944501 1
ion S   0.416667773736112   0.833332211722223   0.413122023055499 1
ion S   0.416667773736112   0.833332211722223   0.586877994944501 1
ion S   0.666667773736112   0.833332211722223   0.413122023055499 1
ion S   0.666667773736112   0.833332211722223   0.586877994944501 1
ion S   0.916667773736112   0.833332211722223   0.413122023055499 1
ion S   0.916667773736112   0.833332211722223   0.586877994944501 1


# Forces in Lattice coordinates:
force W   0.000000000000000  -0.000000000000000   0.000000000000000 1
force W  -0.000000000000000  -0.000000000000000  -0.000000000000000 1
force W   0.000000000000000  -0.000000000000000   0.000000000000000 1
force W   0.000000000000000   0.000000000000000   0.000000000000000 1
force W   0.000000000000000  -0.000000000000000  -0.000000000000000 1
force W   0.000000000000000   0.000000000000000  -0.000000000000000 1
force W  -0.000000000000000  -0.000000000000000  -0.000000000000000 1
force W  -0.000000000000000  -0.000000000000000  -0.000000000000000 1
force W   0.000000000000000   0.000000000000000   0.000000000000000 1
force W  -0.000000000000000  -0.000000000000000   0.000000000000000 1
force W  -0.000000000000000  -0.000000000000000  -0.000000000000000 1
force W   0.000000000000000   0.000000000000000  -0.000000000000000 1
force W  -0.000000000000000  -0.000000000000000  -0.000000000000000 1
force W  -0.000000000000000   0.000000000000000   0.000000000000000 1
force W   0.000000000000000  -0.000000000000000   0.000000000000000 1
force W   0.000000000000000  -0.000000000000000   0.000000000000000 1
force S  -0.000000000000000  -0.000000000000000  -0.011869522794942 1
force S   0.000000000000000   0.000000000000000   0.011869522794942 1
force S   0.000000000000000   0.000000000000000  -0.011869522794942 1
force S  -0.000000000000000  -0.000000000000000   0.011869522794943 1
force S   0.000000000000000  -0.000000000000000  -0.011869522794942 1
force S  -0.000000000000000   0.000000000000000   0.011869522794830 1
force S  -0.000000000000000  -0.000000000000000  -0.011869522794829 1
force S   0.000000000000000  -0.000000000000000   0.011869522795171 1
force S   0.000000000000000  -0.000000000000000  -0.011869522794829 1
force S  -0.000000000000000  -0.000000000000000   0.011869522794941 1
force S   0.000000000000000   0.000000000000000  -0.011869522794829 1
force S  -0.000000000000000  -0.000000000000000   0.011869522794828 1
force S   0.000000000000000  -0.000000000000000  -0.011869522794944 1
force S  -0.000000000000000  -0.000000000000000   0.011869522794829 1
force S   0.000000000000000   0.000000000000000  -0.011869522794942 1
force S  -0.000000000000000   0.000000000000000   0.011869522794942 1
force S  -0.000000000000000  -0.000000000000000  -0.011869522794830 1
force S   0.000000000000000   0.000000000000000   0.011869522794829 1
force S  -0.000000000000000   0.000000000000000  -0.011869522794942 1
force S   0.000000000000000   0.000000000000000   0.011869522794942 1
force S  -0.000000000000000   0.000000000000000  -0.011869522794830 1
force S  -0.000000000000000   0.000000000000000   0.011869522795169 1
force S  -0.000000000000000   0.000000000000000  -0.011869522794830 1
force S   0.000000000000000   0.000000000000000   0.011869522794829 1
force S   0.000000000000000   0.000000000000000  -0.011869522794830 1
force S   0.000000000000000   0.000000000000000   0.011869522794944 1
force S  -0.000000000000000   0.000000000000000  -0.011869522794829 1
force S   0.000000000000000   0.000000000000000   0.011869522794943 1
force S  -0.000000000000000   0.000000000000000  -0.011869522794828 1
force S  -0.000000000000000   0.000000000000000   0.011869522794943 1
force S  -0.000000000000000  -0.000000000000000  -0.011869522794829 1
force S   0.000000000000000   0.000000000000000   0.011869522794942 1

# Energy components:
   A_diel =       -0.0439414202116074
   Eewald =     8742.4775433743579924
       EH =     9915.8348994998359558
     Eloc =   -20172.1785167860216461
      Enl =     -179.1450575337538567
      Exc =     -465.6550603988742978
 Exc_core =      230.1592918475706711
       KE =      498.5436632949445084
  MuShift =       -0.0060320336267309
-------------------------------------
     Etot =    -1430.0132101557794613
       TS =        0.0110327441134964
-------------------------------------
        F =    -1430.0242428998928972

IonicMinimize: Iter:   1  F: -1430.024242899892897  |grad|_K:  1.632e-04  alpha:  1.000e+00  linmin: -1.000e+00  t[s]:   5798.87

#--- Lowdin population analysis ---
# oxidation-state W -0.538 -0.538 -0.538 -0.538 -0.538 -0.538 -0.538 -0.538 -0.538 -0.538 -0.538 -0.538 -0.538 -0.538 -0.538 -0.538
# magnetic-moments W +0.000 +0.000 +0.000 +0.000 +0.000 +0.000 +0.000 +0.000 +0.000 +0.000 +0.000 +0.000 +0.000 +0.000 +0.000 +0.000
# oxidation-state S +0.321 +0.321 +0.321 +0.321 +0.321 +0.321 +0.321 +0.321 +0.321 +0.321 +0.321 +0.321 +0.321 +0.321 +0.321 +0.321 +0.321 +0.321 +0.321 +0.321 +0.321 +0.321 +0.321 +0.321 +0.321 +0.321 +0.321 +0.321 +0.321 +0.321 +0.321 +0.321
# magnetic-moments S -0.000 -0.000 -0.000 -0.000 -0.000 -0.000 -0.000 -0.000 -0.000 -0.000 -0.000 -0.000 -0.000 -0.000 -0.000 -0.000 -0.000 -0.000 -0.000 -0.000 -0.000 -0.000 -0.000 -0.000 -0.000 -0.000 -0.000 -0.000 -0.000 -0.000 -0.000 -0.000

	Linear fluid (dielectric constant: 78.4, screening length: 5.74355 Bohr) occupying 0.754502 of unit cell:	Completed after 5 iterations at t[s]:   5828.26

-------- Electronic minimization -----------
	Linear fluid (dielectric constant: 78.4, screening length: 5.74355 Bohr) occupying 0.754502 of unit cell:	Completed after 0 iterations at t[s]:   5852.07
	FillingsUpdate:  mu: -0.134008237  nElectrons: 416.500000  magneticMoment: [ Abs: 0.00002  Tot: -0.00000 ]
ElecMinimize: Iter:   0  F: -1430.024239770972827  |grad|_K:  2.085e-07  alpha:  1.000e+00
	Linear fluid (dielectric constant: 78.4, screening length: 5.74355 Bohr) occupying 0.754501 of unit cell:	Completed after 6 iterations at t[s]:   5924.32
	Linear fluid (dielectric constant: 78.4, screening length: 5.74355 Bohr) occupying 0.754501 of unit cell:	Completed after 3 iterations at t[s]:   5955.27
	FillingsUpdate:  mu: -0.134335601  nElectrons: 416.500000  magneticMoment: [ Abs: 0.00002  Tot: -0.00000 ]
	SubspaceRotationAdjust: set factor to 0.315
ElecMinimize: Iter:   1  F: -1430.024246780161548  |grad|_K:  1.015e-07  alpha:  6.530e-01  linmin:  1.470e-04  t[s]:   5997.49
	Linear fluid (dielectric constant: 78.4, screening length: 5.74355 Bohr) occupying 0.754503 of unit cell:	Completed after 2 iterations at t[s]:   6025.05
	Linear fluid (dielectric constant: 78.4, screening length: 5.74355 Bohr) occupying 0.754504 of unit cell:	Completed after 0 iterations at t[s]:   6054.59
	FillingsUpdate:  mu: -0.134295105  nElectrons: 416.500000  magneticMoment: [ Abs: 0.00001  Tot: -0.00000 ]
	SubspaceRotationAdjust: set factor to 0.426
ElecMinimize: Iter:   2  F: -1430.024249290413536  |grad|_K:  9.395e-08  alpha:  9.829e-01  linmin: -1.239e-04  t[s]:   6095.62
	Linear fluid (dielectric constant: 78.4, screening length: 5.74355 Bohr) occupying 0.754510 of unit cell:	Completed after 2 iterations at t[s]:   6123.41
	Linear fluid (dielectric constant: 78.4, screening length: 5.74355 Bohr) occupying 0.754508 of unit cell:	Completed after 0 iterations at t[s]:   6153.01
	FillingsUpdate:  mu: -0.134196613  nElectrons: 416.500000  magneticMoment: [ Abs: 0.00001  Tot: -0.00000 ]
	SubspaceRotationAdjust: set factor to 0.499
ElecMinimize: Iter:   3  F: -1430.024250770940171  |grad|_K:  7.523e-08  alpha:  6.659e-01  linmin:  1.480e-05  t[s]:   6193.80
	Linear fluid (dielectric constant: 78.4, screening length: 5.74355 Bohr) occupying 0.754510 of unit cell:	Completed after 2 iterations at t[s]:   6221.57
	Linear fluid (dielectric constant: 78.4, screening length: 5.74355 Bohr) occupying 0.754510 of unit cell:	Completed after 0 iterations at t[s]:   6250.99
	FillingsUpdate:  mu: -0.134270570  nElectrons: 416.500000  magneticMoment: [ Abs: 0.00001  Tot: -0.00000 ]
	SubspaceRotationAdjust: set factor to 0.415
ElecMinimize: Iter:   4  F: -1430.024251385335901  |grad|_K:  4.873e-08  alpha:  4.635e-01  linmin:  3.076e-05  t[s]:   6291.71
	Linear fluid (dielectric constant: 78.4, screening length: 5.74355 Bohr) occupying 0.754511 of unit cell:	Completed after 2 iterations at t[s]:   6319.89
	Linear fluid (dielectric constant: 78.4, screening length: 5.74355 Bohr) occupying 0.754511 of unit cell:	Completed after 0 iterations at t[s]:   6349.43
	FillingsUpdate:  mu: -0.134237622  nElectrons: 416.500000  magneticMoment: [ Abs: 0.00001  Tot: +0.00000 ]
	SubspaceRotationAdjust: set factor to 0.488
ElecMinimize: Iter:   5  F: -1430.024251567378315  |grad|_K:  2.217e-08  alpha:  3.518e-01  linmin: -4.062e-05  t[s]:   6390.58
	Linear fluid (dielectric constant: 78.4, screening length: 5.74355 Bohr) occupying 0.754511 of unit cell:	Completed after 0 iterations at t[s]:   6417.92
	Linear fluid (dielectric constant: 78.4, screening length: 5.74355 Bohr) occupying 0.754511 of unit cell:	Completed after 0 iterations at t[s]:   6446.87
	FillingsUpdate:  mu: -0.134237840  nElectrons: 416.500000  magneticMoment: [ Abs: 0.00000  Tot: +0.00000 ]
	SubspaceRotationAdjust: set factor to 0.495
ElecMinimize: Iter:   6  F: -1430.024251647331994  |grad|_K:  1.396e-08  alpha:  6.137e-01  linmin:  6.154e-07  t[s]:   6487.49
	Linear fluid (dielectric constant: 78.4, screening length: 5.74355 Bohr) occupying 0.754511 of unit cell:	Completed after 0 iterations at t[s]:   6514.97
	Linear fluid (dielectric constant: 78.4, screening length: 5.74355 Bohr) occupying 0.754511 of unit cell:	Completed after 0 iterations at t[s]:   6543.98
	FillingsUpdate:  mu: -0.134237907  nElectrons: 416.500000  magneticMoment: [ Abs: 0.00000  Tot: +0.00000 ]
	SubspaceRotationAdjust: set factor to 0.522
ElecMinimize: Iter:   7  F: -1430.024251671012053  |grad|_K:  8.584e-09  alpha:  4.949e-01  linmin:  1.545e-08  t[s]:   6585.25
	Linear fluid (dielectric constant: 78.4, screening length: 5.74355 Bohr) occupying 0.754511 of unit cell:	Completed after 0 iterations at t[s]:   6612.81
	Linear fluid (dielectric constant: 78.4, screening length: 5.74355 Bohr) occupying 0.754511 of unit cell:	Completed after 0 iterations at t[s]:   6641.80
	FillingsUpdate:  mu: -0.134237901  nElectrons: 416.500000  magneticMoment: [ Abs: 0.00000  Tot: -0.00000 ]
	SubspaceRotationAdjust: set factor to 0.596
ElecMinimize: Iter:   8  F: -1430.024251681095166  |grad|_K:  5.469e-09  alpha:  5.568e-01  linmin:  1.242e-07  t[s]:   6682.76
	Linear fluid (dielectric constant: 78.4, screening length: 5.74355 Bohr) occupying 0.754511 of unit cell:	Completed after 0 iterations at t[s]:   6710.27
	Linear fluid (dielectric constant: 78.4, screening length: 5.74355 Bohr) occupying 0.754511 of unit cell:	Completed after 0 iterations at t[s]:   6739.49
	FillingsUpdate:  mu: -0.134237863  nElectrons: 416.500000  magneticMoment: [ Abs: 0.00000  Tot: -0.00000 ]
	SubspaceRotationAdjust: set factor to 0.7
ElecMinimize: Iter:   9  F: -1430.024251685367972  |grad|_K:  3.848e-09  alpha:  5.758e-01  linmin: -2.085e-07  t[s]:   6780.59
	Linear fluid (dielectric constant: 78.4, screening length: 5.74355 Bohr) occupying 0.754510 of unit cell:	Completed after 0 iterations at t[s]:   6807.97
	Linear fluid (dielectric constant: 78.4, screening length: 5.74355 Bohr) occupying 0.754510 of unit cell:	Completed after 0 iterations at t[s]:   6837.39
	FillingsUpdate:  mu: -0.134237833  nElectrons: 416.500000  magneticMoment: [ Abs: 0.00000  Tot: -0.00000 ]
	SubspaceRotationAdjust: set factor to 0.834
ElecMinimize: Iter:  10  F: -1430.024251686927073  |grad|_K:  2.459e-09  alpha:  4.334e-01  linmin: -2.475e-07  t[s]:   6878.37
ElecMinimize: Converged (|Delta F|<1.000000e-08 for 2 iters).
Setting wave functions to eigenvectors of Hamiltonian

# Ionic positions in lattice coordinates:
ion W   0.083334440402778   0.166665545055556   0.500000009000000 1
ion W   0.333334440402778   0.166665545055556   0.500000009000000 1
ion W   0.583334440402778   0.166665545055556   0.500000009000000 1
ion W   0.833334440402778   0.166665545055556   0.500000009000000 1
ion W   0.083334440402778   0.416665545055556   0.500000009000000 1
ion W   0.333334440402778   0.416665545055556   0.500000009000000 1
ion W   0.583334440402778   0.416665545055556   0.500000009000000 1
ion W   0.833334440402778   0.416665545055556   0.500000009000000 1
ion W   0.083334440402778   0.666665545055556   0.500000009000000 1
ion W   0.333334440402778   0.666665545055556   0.500000009000000 1
ion W   0.583334440402778   0.666665545055556   0.500000009000000 1
ion W   0.833334440402778   0.666665545055556   0.500000009000000 1
ion W   0.083334440402778   0.916665545055556   0.500000009000000 1
ion W   0.333334440402778   0.916665545055556   0.500000009000000 1
ion W   0.583334440402778   0.916665545055556   0.500000009000000 1
ion W   0.833334440402778   0.916665545055556   0.500000009000000 1
ion S   0.166667773736112   0.083332211722223   0.413087796457436 1
ion S   0.166667773736112   0.083332211722223   0.586912221542564 1
ion S   0.416667773736112   0.083332211722223   0.413087796457436 1
ion S   0.416667773736112   0.083332211722223   0.586912221542564 1
ion S   0.666667773736112   0.083332211722223   0.413087796457436 1
ion S   0.666667773736112   0.083332211722223   0.586912221542564 1
ion S   0.916667773736112   0.083332211722223   0.413087796457436 1
ion S   0.916667773736112   0.083332211722223   0.586912221542564 1
ion S   0.166667773736112   0.333332211722223   0.413087796457436 1
ion S   0.166667773736112   0.333332211722223   0.586912221542564 1
ion S   0.416667773736112   0.333332211722223   0.413087796457436 1
ion S   0.416667773736112   0.333332211722223   0.586912221542564 1
ion S   0.666667773736112   0.333332211722223   0.413087796457436 1
ion S   0.666667773736112   0.333332211722223   0.586912221542564 1
ion S   0.916667773736112   0.333332211722223   0.413087796457436 1
ion S   0.916667773736112   0.333332211722223   0.586912221542564 1
ion S   0.166667773736112   0.583332211722223   0.413087796457436 1
ion S   0.166667773736112   0.583332211722223   0.586912221542564 1
ion S   0.416667773736112   0.583332211722223   0.413087796457436 1
ion S   0.416667773736112   0.583332211722223   0.586912221542564 1
ion S   0.666667773736112   0.583332211722223   0.413087796457436 1
ion S   0.666667773736112   0.583332211722223   0.586912221542564 1
ion S   0.916667773736112   0.583332211722223   0.413087796457436 1
ion S   0.916667773736112   0.583332211722223   0.586912221542564 1
ion S   0.166667773736112   0.833332211722223   0.413087796457436 1
ion S   0.166667773736112   0.833332211722223   0.586912221542564 1
ion S   0.416667773736112   0.833332211722223   0.413087796457436 1
ion S   0.416667773736112   0.833332211722223   0.586912221542564 1
ion S   0.666667773736112   0.833332211722223   0.413087796457436 1
ion S   0.666667773736112   0.833332211722223   0.586912221542564 1
ion S   0.916667773736112   0.833332211722223   0.413087796457436 1
ion S   0.916667773736112   0.833332211722223   0.586912221542564 1


# Forces in Lattice coordinates:
force W  -0.000000000000000  -0.000000000000000   0.000000000000000 1
force W   0.000000000000000  -0.000000000000000  -0.000000000000000 1
force W   0.000000000000000   0.000000000000000   0.000000000000000 1
force W   0.000000000000000   0.000000000000000  -0.000000000000000 1
force W  -0.000000000000000  -0.000000000000000  -0.000000000000000 1
force W  -0.000000000000000  -0.000000000000000  -0.000000000000000 1
force W   0.000000000000000  -0.000000000000000  -0.000000000000000 1
force W  -0.000000000000000  -0.000000000000000   0.000000000000000 1
force W   0.000000000000000   0.000000000000000  -0.000000000000000 1
force W   0.000000000000000  -0.000000000000000   0.000000000000000 1
force W  -0.000000000000000   0.000000000000000   0.000000000000000 1
force W   0.000000000000000  -0.000000000000000  -0.000000000000000 1
force W  -0.000000000000000  -0.000000000000000  -0.000000000000000 1
force W   0.000000000000000  -0.000000000000000   0.000000000000000 1
force W  -0.000000000000000  -0.000000000000000   0.000000000000000 1
force W  -0.000000000000000   0.000000000000000  -0.000000000000000 1
force S   0.000000000000000   0.000000000000000  -0.002546835525083 1
force S  -0.000000000000000  -0.000000000000000   0.002546835525083 1
force S   0.000000000000000  -0.000000000000000  -0.002546835524857 1
force S  -0.000000000000000  -0.000000000000000   0.002546835524857 1
force S   0.000000000000000   0.000000000000000  -0.002546835525084 1
force S  -0.000000000000000   0.000000000000000   0.002546835524855 1
force S   0.000000000000000  -0.000000000000000  -0.002546835524971 1
force S  -0.000000000000000  -0.000000000000000   0.002546835525084 1
force S   0.000000000000000   0.000000000000000  -0.002546835525084 1
force S   0.000000000000000   0.000000000000000   0.002546835525084 1
force S   0.000000000000000  -0.000000000000000  -0.002546835525084 1
force S   0.000000000000000  -0.000000000000000   0.002546835525085 1
force S  -0.000000000000000   0.000000000000000  -0.002546835524969 1
force S  -0.000000000000000   0.000000000000000   0.002546835525084 1
force S   0.000000000000000   0.000000000000000  -0.002546835525085 1
force S  -0.000000000000000   0.000000000000000   0.002546835524970 1
force S   0.000000000000000   0.000000000000000  -0.002546835525084 1
force S  -0.000000000000000   0.000000000000000   0.002546835525084 1
force S   0.000000000000000   0.000000000000000  -0.002546835525086 1
force S   0.000000000000000  -0.000000000000000   0.002546835524971 1
force S  -0.000000000000000   0.000000000000000  -0.002546835524970 1
force S  -0.000000000000000   0.000000000000000   0.002546835524969 1
force S   0.000000000000000   0.000000000000000  -0.002546835525199 1
force S   0.000000000000000   0.000000000000000   0.002546835525084 1
force S   0.000000000000000  -0.000000000000000  -0.002546835525083 1
force S   0.000000000000000  -0.000000000000000   0.002546835524971 1
force S  -0.000000000000000  -0.000000000000000  -0.002546835524970 1
force S   0.000000000000000   0.000000000000000   0.002546835524971 1
force S  -0.000000000000000   0.000000000000000  -0.002546835524971 1
force S   0.000000000000000  -0.000000000000000   0.002546835524971 1
force S  -0.000000000000000  -0.000000000000000  -0.002546835525085 1
force S   0.000000000000000  -0.000000000000000   0.002546835525084 1

# Energy components:
   A_diel =       -0.0439347952531969
   Eewald =     8741.7168367517388106
       EH =     9915.0765825551879971
     Eloc =   -20170.6452449965763662
      Enl =     -179.1439699220242971
      Exc =     -465.6465527312296899
 Exc_core =      230.1592899518163620
       KE =      498.5198133013381039
  MuShift =       -0.0060320336267309
-------------------------------------
     Etot =    -1430.0132119186280306
       TS =        0.0110397682990366
-------------------------------------
        F =    -1430.0242516869270730

IonicMinimize: Iter:   2  F: -1430.024251686927073  |grad|_K:  3.501e-05  alpha:  1.000e+00  linmin: -1.000e+00  t[s]:   6896.72
IonicMinimize: Converged (|grad|_K<1.000000e-04).

#--- Lowdin population analysis ---
# oxidation-state W -0.537 -0.537 -0.537 -0.537 -0.537 -0.537 -0.537 -0.537 -0.537 -0.537 -0.537 -0.537 -0.537 -0.537 -0.537 -0.537
# magnetic-moments W -0.000 -0.000 -0.000 -0.000 -0.000 -0.000 -0.000 -0.000 -0.000 -0.000 -0.000 -0.000 -0.000 -0.000 -0.000 -0.000
# oxidation-state S +0.321 +0.321 +0.321 +0.321 +0.321 +0.321 +0.321 +0.321 +0.321 +0.321 +0.321 +0.321 +0.321 +0.321 +0.321 +0.321 +0.321 +0.321 +0.321 +0.321 +0.321 +0.321 +0.321 +0.321 +0.321 +0.321 +0.321 +0.321 +0.321 +0.321 +0.321 +0.321
# magnetic-moments S +0.000 +0.000 +0.000 +0.000 +0.000 +0.000 +0.000 +0.000 +0.000 +0.000 +0.000 +0.000 +0.000 +0.000 +0.000 +0.000 +0.000 +0.000 +0.000 +0.000 +0.000 +0.000 +0.000 +0.000 +0.000 +0.000 +0.000 +0.000 +0.000 +0.000 +0.000 +0.000


Dumping 'NbTe2.fillings' ... done
Dumping 'NbTe2.wfns' ... done
Dumping 'NbTe2.fluidState' ... done
Dumping 'NbTe2.ionpos' ... done
Dumping 'NbTe2.eigenvals' ... done
End date and time: Sun Jan 17 20:30:53 2021  (Duration: 0-1:55:06.63)
Done!
