
*************** JDFTx 1.5.0  ***************

Start date and time: Wed Jul 15 21:48:34 2020
Executable jdftx_gpu with command-line: -i Neutral.in -o Neutral.out
Running on hosts (process indices):  amax (0-5)
Divided in process groups (process indices):  0 (0)  1 (1)  2 (2)  3 (3)  4 (4)  5 (5)
gpuInit: Found compatible cuda device 0 'Tesla K80'
gpuInit: Found compatible cuda device 1 'Tesla K80'
gpuInit: Found compatible cuda device 2 'Tesla K80'
gpuInit: Found compatible cuda device 3 'Tesla K80'
gpuInit: Found compatible cuda device 4 'Tesla K80'
gpuInit: Found compatible cuda device 5 'Tesla K80'
gpuInit: Selected device 0
Resource initialization completed at t[s]:      6.74
Run totals: 6 processes, 24 threads, 6 GPUs


Input parsed successfully to the following command list (including defaults):

basis kpoint-dependent
cache-projectors no
coords-type Lattice
core-overlap-check none
coulomb-interaction Slab 001
coulomb-truncation-embed 0 0 0.5
davidson-band-ratio 1.1
dump End State
dump-name NbTe2.$VAR
elec-cutoff 20 100
elec-eigen-algo Davidson
elec-ex-corr gga-PBE
elec-smearing Gauss 0.0073499
electronic-minimize  \
	dirUpdateScheme      FletcherReeves \
	linminMethod         DirUpdateRecommended \
	nIterations          500 \
	history              15 \
	knormThreshold       0 \
	energyDiffThreshold  1e-08 \
	nEnergyDiff          2 \
	alphaTstart          1 \
	alphaTmin            1e-10 \
	updateTestStepSize   yes \
	alphaTreduceFactor   0.1 \
	alphaTincreaseFactor 3 \
	nAlphaAdjustMax      3 \
	wolfeEnergy          0.0001 \
	wolfeGradient        0.9 \
	fdTest               no
exchange-regularization WignerSeitzTruncated
fluid LinearPCM 298.000000 1.013250
fluid-anion F- 1 MeanFieldLJ \
	epsBulk 1 \
	pMol 0 \
	epsInf 1 \
	Pvap 0 \
	sigmaBulk 0 \
	Rvdw 2.24877 \
	Res 0 \
	tauNuc 343133
fluid-cation Na+ 1 MeanFieldLJ \
	epsBulk 1 \
	pMol 0 \
	epsInf 1 \
	Pvap 0 \
	sigmaBulk 0 \
	Rvdw 2.19208 \
	Res 0 \
	tauNuc 343133
fluid-ex-corr lda-TF lda-PZ
fluid-gummel-loop 10 1.000000e-05
fluid-minimize  \
	dirUpdateScheme      PolakRibiere \
	linminMethod         DirUpdateRecommended \
	nIterations          400 \
	history              15 \
	knormThreshold       1e-11 \
	energyDiffThreshold  0 \
	nEnergyDiff          2 \
	alphaTstart          1 \
	alphaTmin            1e-10 \
	updateTestStepSize   yes \
	alphaTreduceFactor   0.1 \
	alphaTincreaseFactor 3 \
	nAlphaAdjustMax      6 \
	wolfeEnergy          0.0001 \
	wolfeGradient        0.9 \
	fdTest               no
fluid-solvent H2O 55.338 ScalarEOS \
	epsBulk 78.4 \
	pMol 0.92466 \
	epsInf 1.77 \
	Pvap 1.06736e-10 \
	sigmaBulk 4.62e-05 \
	Rvdw 2.61727 \
	Res 1.42 \
	tauNuc 343133 \
	poleEl 15 7 1
forces-output-coords Positions
initial-state NbTe2.$VAR
ion Te   0.264578727188149   0.293225778340057   0.609031877762474 0
ion Te   0.735421292811853   0.293225778340057   0.609031877762474 0
ion Te   0.000000000000000   0.788266891076550   0.390898338331579 0
ion Te   0.500000000000000   0.784589116180071   0.380766557007455 0
ion Te   0.264578727188149   0.706774221659943   0.609031877762474 0
ion Te   0.735421292811853   0.706774221659943   0.609031877762474 0
ion Te   0.000000000000000   0.211733163923452   0.390898338331579 0
ion Te   0.500000000000000   0.215410938819930   0.380766557007455 0
ion Pd   0.123947799282042   0.251872353082045   0.504342663004432 0
ion Pd   0.622941695060638   0.243364881743885   0.494449792283614 0
ion Pd   0.000000000000000   0.499999944999999   0.437609022447548 0
ion Pd   0.500000000000000   0.499999944999999   0.431217929735757 0
ion Pd   0.123947809282043   0.748127673917953   0.504342663004432 0
ion Pd   0.622941695060638   0.756635145256114   0.494449792283614 0
ion Pd   0.377058304939361   0.243364881743885   0.494449792283614 0
ion Pd   0.876052190717957   0.251872353082045   0.504342663004432 0
ion Pd   0.377058304939361   0.756635145256114   0.494449792283614 0
ion Pd   0.876052190717957   0.748127673917953   0.504342663004432 0
ion Pd   0.248604004423193   0.000000000000000   0.566184194131648 0
ion Pd   0.751396015576809   0.000000000000000   0.566184194131648 0
ion Pb   0.251128639659875   0.000000000000000   0.415572690805236 0
ion Pb   0.748871380340127   0.000000000000000   0.415572690805236 0
ion Pb   0.000000000000000   0.500000000000000   0.589219183273141 0
ion Pb   0.251664621972508   0.500000000000000   0.435759671757952 0
ion Pb   0.748335398027494   0.500000000000000   0.435759671757952 0
ion Pb   0.000000000000000   0.000000000000000   0.574308639259319 0
ion Pb   0.500000000000000   0.000000000000000   0.573481043014405 0
ion-species GBRV/$ID_pbe.uspp
ion-width Ecut
ionic-minimize  \
	dirUpdateScheme      L-BFGS \
	linminMethod         DirUpdateRecommended \
	nIterations          0 \
	history              15 \
	knormThreshold       0.0001 \
	energyDiffThreshold  1e-06 \
	nEnergyDiff          2 \
	alphaTstart          1 \
	alphaTmin            1e-10 \
	updateTestStepSize   yes \
	alphaTreduceFactor   0.1 \
	alphaTincreaseFactor 3 \
	nAlphaAdjustMax      3 \
	wolfeEnergy          0.0001 \
	wolfeGradient        0.9 \
	fdTest               no
kpoint   0.000000000000   0.000000000000   0.000000000000  1.00000000000000
kpoint-folding 3 4 1 
latt-move-scale 1 1 1
latt-scale 1 1 1 
lattice Triclinic 22.0202 16.2852 36.691 90 90 90
lattice-minimize  \
	dirUpdateScheme      L-BFGS \
	linminMethod         DirUpdateRecommended \
	nIterations          0 \
	history              15 \
	knormThreshold       0 \
	energyDiffThreshold  1e-06 \
	nEnergyDiff          2 \
	alphaTstart          1 \
	alphaTmin            1e-10 \
	updateTestStepSize   yes \
	alphaTreduceFactor   0.1 \
	alphaTincreaseFactor 3 \
	nAlphaAdjustMax      3 \
	wolfeEnergy          0.0001 \
	wolfeGradient        0.9 \
	fdTest               no
lcao-params -1 1e-06 0.0073499
pcm-variant CANDLE
spintype no-spin
subspace-rotation-factor 1 yes
symmetries automatic
symmetry-threshold 0.0001



---------- Setting up symmetries ----------

Found 8 point-group symmetries of the bravais lattice
Found 4 space-group symmetries with basis
Applied RMS atom displacement 3.36357e-07 bohrs to make symmetries exact.

---------- Initializing the Grid ----------
R = 
[    22.0202          0          0  ]
[          0    16.2852          0  ]
[          0          0     36.691  ]
unit cell volume = 13157.6
G =
[   0.285337          0          0  ]
[          0   0.385821          0  ]
[          0          0   0.171246  ]
Minimum fftbox size, Smin = [  100  76  168  ]
Chosen fftbox size, S = [  100  80  168  ]

---------- Initializing tighter grid for wavefunction operations ----------
R = 
[    22.0202          0          0  ]
[          0    16.2852          0  ]
[          0          0     36.691  ]
unit cell volume = 13157.6
G =
[   0.285337          0          0  ]
[          0   0.385821          0  ]
[          0          0   0.171246  ]
Minimum fftbox size, Smin = [  92  68  148  ]
Chosen fftbox size, S = [  96  70  150  ]

---------- Exchange Correlation functional ----------
Initalized PBE GGA exchange.
Initalized PBE GGA correlation.

---------- Setting up pseudopotentials ----------
Width of ionic core gaussian charges (only for fluid interactions / plotting) set to 0.397384

Reading pseudopotential file '/home/guoxy/vasp/jdftx-1.5.0/build/pseudopotentials/GBRV/te_pbe.uspp':
  Title: Te.  Created by USPP 7.3.6 on 14-9-2013
  Reference state energy: -13.134220.  6 valence electrons in orbitals:
    |500>  occupation: 2  eigenvalue: -0.555231
    |510>  occupation: 4  eigenvalue: -0.218781
  lMax: 2  lLocal: 2  QijEcut: 5
  5 projectors sampled on a log grid with 723 points:
    l: 0  eig: -0.555229  rCut: 2.1
    l: 0  eig: 1.000000  rCut: 2.1
    l: 1  eig: -0.218780  rCut: 2.1
    l: 1  eig: 1.000000  rCut: 2.1
    l: 2  eig: 1.000000  rCut: 2.6
  Partial core density with radius 1.8
  Transforming core density to a uniform radial grid of dG=0.02 with 1279 points.
  Transforming local potential to a uniform radial grid of dG=0.02 with 1279 points.
  Transforming nonlocal projectors to a uniform radial grid of dG=0.02 with 432 points.
  Transforming density augmentations to a uniform radial grid of dG=0.02 with 1279 points.
  Transforming atomic orbitals to a uniform radial grid of dG=0.02 with 432 points.
  Core radius for overlap checks: 2.60 bohrs.

Reading pseudopotential file '/home/guoxy/vasp/jdftx-1.5.0/build/pseudopotentials/GBRV/pd_pbe.uspp':
  Title: Pd.  Created by USPP 7.3.6 on 31-3-15
  Reference state energy: -99.095797.  16 valence electrons in orbitals:
    |410>  occupation: 6  eigenvalue: -2.075344
    |420>  occupation: 9.5  eigenvalue: -0.331049
    |500>  occupation: 0  eigenvalue: -0.255738
    |510>  occupation: 0  eigenvalue: -0.109005
  lMax: 2  lLocal: 3  QijEcut: 6
  6 projectors sampled on a log grid with 717 points:
    l: 0  eig: -0.255738  rCut: 2.5
    l: 0  eig: 1.000000  rCut: 2.5
    l: 1  eig: -2.075343  rCut: 1.53
    l: 1  eig: -0.109006  rCut: 1.53
    l: 2  eig: -0.331048  rCut: 1.63
    l: 2  eig: 1.500000  rCut: 1.63
  Partial core density with radius 1
  Transforming core density to a uniform radial grid of dG=0.02 with 1279 points.
  Transforming local potential to a uniform radial grid of dG=0.02 with 1279 points.
  Transforming nonlocal projectors to a uniform radial grid of dG=0.02 with 432 points.
  Transforming density augmentations to a uniform radial grid of dG=0.02 with 1279 points.
  Transforming atomic orbitals to a uniform radial grid of dG=0.02 with 432 points.
  Core radius for overlap checks: 2.50 bohrs.

Reading pseudopotential file '/home/guoxy/vasp/jdftx-1.5.0/build/pseudopotentials/GBRV/pb_pbe.uspp':
  Title: Pb.  Created by USPP 7.3.6 on 14-9-2013
  Reference state energy: -81.948189.  14 valence electrons in orbitals:
    |520>  occupation: 10  eigenvalue: -0.778257
    |600>  occupation: 2  eigenvalue: -0.442466
    |610>  occupation: 2  eigenvalue: -0.128540
  lMax: 2  lLocal: 3  QijEcut: 5
  6 projectors sampled on a log grid with 747 points:
    l: 0  eig: -0.442463  rCut: 2.3
    l: 0  eig: 1.000000  rCut: 2.3
    l: 1  eig: -0.128540  rCut: 2.3
    l: 1  eig: 1.000000  rCut: 2.3
    l: 2  eig: -0.778256  rCut: 2.1
    l: 2  eig: 0.000000  rCut: 2.1
  Partial core density with radius 1
  Transforming core density to a uniform radial grid of dG=0.02 with 1279 points.
  Transforming local potential to a uniform radial grid of dG=0.02 with 1279 points.
  Transforming nonlocal projectors to a uniform radial grid of dG=0.02 with 432 points.
  Transforming density augmentations to a uniform radial grid of dG=0.02 with 1279 points.
  Transforming atomic orbitals to a uniform radial grid of dG=0.02 with 432 points.
  Core radius for overlap checks: 2.30 bohrs.

Initialized 3 species with 27 total atoms.

Folded 1 k-points by 3x4x1 to 12 k-points.

---------- Setting up k-points, bands, fillings ----------
Reduced to 6 k-points under symmetry. 
Computing the number of bands and number of electrons
Calculating initial fillings.
nElectrons: 338.000000   nBands: 239   nStates: 6

----- Setting up reduced wavefunction bases (one per k-point) -----
average nbasis = 56208.583 , ideal nbasis = 56210.211

---------- Setting up coulomb interaction ----------
Fluid mode embedding: using embedded box, but periodic Coulomb kernel.
(Fluid response is responsible for (approximate) separation between periodic images.)
Setting up double-sized grid for truncated Coulomb potentials:
R = 
[    22.0202          0          0  ]
[          0    16.2852          0  ]
[          0          0    73.3821  ]
unit cell volume = 26315.2
G =
[   0.285337          0          0  ]
[          0   0.385821          0  ]
[          0          0  0.0856229  ]
Chosen fftbox size, S = [  100  80  336  ]
Integer grid location selected as the embedding center:
   Grid: [  0  0  84  ]
   Lattice: [  0  0  0.5  ]
   Cartesian: [  0  0  18.3455  ]
Constructing Wigner-Seitz cell: 6 faces (6 quadrilaterals, 0 hexagons)
Range-separation parameter for embedded mesh potentials due to point charges: 0.591999 bohrs.

Initializing van der Waals corrections
	NOTE: vdW corrections apply only for interactions with fluid.
	Te:  C6:  550.54 Eh-a0^6  R0: 3.575 a0
	Pd:  C6:  427.91 Eh-a0^6  R0: 3.097 a0
	Pb:  C6:  881.14 Eh-a0^6  R0: 3.432 a0 (WARNING: beyond Grimme's data set)

---------- Setting up ewald sum ----------
Optimum gaussian width for ewald sums = 6.850961 bohr.
Real space sum over 495 unit cells with max indices [  4  5  2  ]
Reciprocal space sum over 5291 terms with max indices [  6  5  18  ]

---------- Allocating electronic variables ----------
Initializing wave functions:  linear combination of atomic orbitals
Te pseudo-atom occupations:   s ( 2 )  p ( 4 )
Pd pseudo-atom occupations:   s ( 0 )  p ( 6 0 )  d ( 10 )
Pb pseudo-atom occupations:   s ( 2 )  p ( 2 )  d ( 10 )
	FillingsUpdate:  mu: -0.553097552  nElectrons: 338.000000
LCAOMinimize: Iter:   0  F: -1626.7499446554602400  |grad|_K:  2.591e-02  alpha:  1.000e+00
	FillingsUpdate:  mu: +1.071759971  nElectrons: 338.000000
LCAOMinimize: Iter:   1  F: -1626.7944253254950127  |grad|_K:  1.941e-02  alpha:  4.257e-01  linmin:  1.486e-01  cgtest: -1.422e+00  t[s]:     43.39
LCAOMinimize: 	Bad step direction: g.d > 0.
LCAOMinimize: 	Undoing step.
LCAOMinimize: 	Step failed: resetting search direction.
	FillingsUpdate:  mu: +1.071759971  nElectrons: 338.000000
LCAOMinimize: Iter:   2  F: -1626.7944253254950127  |grad|_K:  1.941e-02  alpha:  0.000e+00
	FillingsUpdate:  mu: +0.480339877  nElectrons: 338.000000
LCAOMinimize: Iter:   3  F: -1639.0081279481023557  |grad|_K:  1.190e-02  alpha:  1.419e-01  linmin: -7.542e-02  cgtest:  3.008e-01  t[s]:     69.90
	FillingsUpdate:  mu: +0.023919503  nElectrons: 338.000000
LCAOMinimize: Iter:   4  F: -1643.2686156008180660  |grad|_K:  5.042e-03  alpha:  1.545e-01  linmin: -2.253e-03  cgtest: -5.214e-01  t[s]:     84.95
	FillingsUpdate:  mu: -0.085926557  nElectrons: 338.000000
LCAOMinimize: Iter:   5  F: -1643.6157569949862136  |grad|_K:  3.481e-03  alpha:  6.087e-02  linmin: -3.192e-02  cgtest:  8.224e-01  t[s]:    101.27
LCAOMinimize: Encountered beta<0, resetting CG.
	FillingsUpdate:  mu: -0.091933238  nElectrons: 338.000000
LCAOMinimize: Iter:   6  F: -1643.8307877824511252  |grad|_K:  1.559e-03  alpha:  1.062e-01  linmin:  4.021e-02  cgtest: -1.907e-01  t[s]:    116.43
	FillingsUpdate:  mu: -0.070721980  nElectrons: 338.000000
LCAOMinimize: Iter:   7  F: -1643.9149389768517722  |grad|_K:  9.233e-04  alpha:  2.309e-01  linmin:  1.988e-02  cgtest:  4.418e-01  t[s]:    132.69
	FillingsUpdate:  mu: -0.078279592  nElectrons: 338.000000
LCAOMinimize: Iter:   8  F: -1643.9272987904637375  |grad|_K:  3.021e-04  alpha:  8.450e-02  linmin: -5.202e-03  cgtest:  6.382e-02  t[s]:    148.56
	FillingsUpdate:  mu: -0.085033781  nElectrons: 338.000000
LCAOMinimize: Iter:   9  F: -1643.9297230407839834  |grad|_K:  8.880e-05  alpha:  1.541e-01  linmin:  1.545e-02  cgtest: -5.642e-02  t[s]:    163.24
	FillingsUpdate:  mu: -0.085109716  nElectrons: 338.000000
LCAOMinimize: Iter:  10  F: -1643.9300433121209153  |grad|_K:  8.558e-05  alpha:  2.398e-01  linmin:  9.277e-04  cgtest:  2.222e-02  t[s]:    177.63
	FillingsUpdate:  mu: -0.084104810  nElectrons: 338.000000
LCAOMinimize: Iter:  11  F: -1643.9302766532084661  |grad|_K:  3.124e-05  alpha:  1.847e-01  linmin:  5.992e-04  cgtest: -2.643e-02  t[s]:    191.77
	FillingsUpdate:  mu: -0.083382042  nElectrons: 338.000000
LCAOMinimize: Iter:  12  F: -1643.9303173935920768  |grad|_K:  1.416e-05  alpha:  2.418e-01  linmin: -7.068e-04  cgtest: -9.161e-04  t[s]:    207.16
	FillingsUpdate:  mu: -0.083664331  nElectrons: 338.000000
LCAOMinimize: Iter:  13  F: -1643.9303294872374863  |grad|_K:  9.099e-06  alpha:  3.488e-01  linmin:  5.348e-04  cgtest: -2.171e-03  t[s]:    223.68
	FillingsUpdate:  mu: -0.083713008  nElectrons: 338.000000
LCAOMinimize: Iter:  14  F: -1643.9303312195474973  |grad|_K:  4.592e-06  alpha:  1.212e-01  linmin: -9.111e-05  cgtest:  4.866e-03  t[s]:    238.45
	FillingsUpdate:  mu: -0.083709960  nElectrons: 338.000000
LCAOMinimize: Iter:  15  F: -1643.9303320558917676  |grad|_K:  2.400e-06  alpha:  2.295e-01  linmin:  7.462e-08  cgtest: -1.949e-03  t[s]:    253.97
	FillingsUpdate:  mu: -0.083713411  nElectrons: 338.000000
LCAOMinimize: Iter:  16  F: -1643.9303321779805174  |grad|_K:  1.198e-06  alpha:  1.227e-01  linmin: -1.066e-05  cgtest:  1.126e-04  t[s]:    270.05
LCAOMinimize: Converged (|Delta F|<1.000000e-06 for 2 iters).
----- createFluidSolver() ----- (Fluid-side solver setup)
   Initializing fluid molecule 'H2O'
     Initializing site 'O'
       Electron density: proportional to exp(-r/0.36935)*erfc((r-0.51523)/0.36823) with norm 6.826
       Charge density: gaussian nuclear width 0.478731 with net site charge 0.826
       Polarizability: cuspless exponential with width 0.32 and norm 3.73
       Hard sphere radius: 2.57003 bohrs
       Positions in reference frame:
         [ +0.000000 +0.000000 +0.000000 ]
     Initializing site 'H'
       Electron density: proportional to exp(-r/0.34641)*erfc((r-0)/0.390882) with norm 0.587
       Charge density: gaussian nuclear width 0.377945 with net site charge -0.413
       Polarizability: cuspless exponential with width 0.39 and norm 3.3
       Positions in reference frame:
         [ +0.000000 -1.441945 +1.122523 ]
         [ +0.000000 +1.441945 +1.122523 ]
     Net charge: 0   dipole magnitude: 0.927204
     Initializing spherical shell mfKernel with radius 2.61727 Bohr
     deltaS corrections:
       site 'O': -7.54299
       site 'H': -6.83917
   Initializing fluid molecule 'Na+'
     Initializing site 'Na'
       Electron density: proportional to exp(-r/0.19682)*erfc((r-0.71491)/0.41314) with norm 8.1383
       Charge density: gaussian nuclear width 0.365347 with net site charge -1
       Hard sphere radius: 1.86327 bohrs
       Positions in reference frame:
         [ +0.000000 +0.000000 +0.000000 ]
     Net charge: -1   dipole magnitude: 0
     Initializing gaussian mfKernel with width: 1.55004 Bohr
     deltaS corrections:
       site 'Na': -22.3555
   Initializing fluid molecule 'F-'
     Initializing site 'F'
       Electron density: proportional to exp(-r/0.38886)*erfc((r-0)/0.438782) with norm 8
       Charge density: gaussian nuclear width 0.374796 with net site charge 1
       Hard sphere radius: 2.39995 bohrs
       Positions in reference frame:
         [ +0.000000 +0.000000 +0.000000 ]
     Net charge: 1   dipole magnitude: 0
     Initializing gaussian mfKernel with width: 1.59012 Bohr
     deltaS corrections:
       site 'F': -9.04335

Correction to mu due to finite nuclear width = -0.0127441
   Cavity determined by nc: 0.00142 and sigma: 0.707107
   Nonlocal vdW cavity from gaussian model electron density with norm = 8 and sigma = 0.993594 bohr
   Charge asymmetry in cavity with sensitivity pCavity = 36.5 e-bohr/Eh
   Electrostatic cavity expanded by eta = 1.46 bohrs
   Weighted density cavitation model constrained by Nbulk: 0.0049383 bohr^-3, Pvap: 3.14029 kPa, Rvdw: 2.61727 bohr and sigmaBulk: 4.62e-05 Eh/bohr^2 at T: 298 K.
   Weighted density dispersion model using vdW pair potentials with single solvent site with sqrtC6eff: 0.77 SI.


---- Citations for features of the code used in this run ----

   Software package:
      R. Sundararaman, K. Letchworth-Weaver, K.A. Schwarz, D. Gunceler, Y. Ozhabes and T.A. Arias, 'JDFTx: software for joint density-functional theory', SoftwareX 6, 278 (2017)

   gga-PBE exchange-correlation functional:
      J.P. Perdew, K. Burke and M. Ernzerhof, Phys. Rev. Lett. 77, 3865 (1996)

   Pseudopotentials:
      KF Garrity, JW Bennett, KM Rabe and D Vanderbilt, Comput. Mater. Sci. 81, 446 (2014)

   Truncated Coulomb potentials:
      R. Sundararaman and T.A. Arias, Phys. Rev. B 87, 165122 (2013)

   Van der Waals correction pair-potentials:
      S. Grimme, J. Comput. Chem. 27, 1787 (2006)

   Charge-asymmetric nonlocally-determined local-electric (CANDLE) solvation model:
      R. Sundararaman and W.A. Goddard III, J. Chem. Phys. 142, 064107 (2015)

   Total energy minimization with Auxiliary Hamiltonian:
      C. Freysoldt, S. Boeck, and J. Neugebauer, Phys. Rev. B 79, 241103(R) (2009)

This list may not be complete. Please suggest additional citations or
report any other bugs at https://github.com/shankar1729/jdftx/issues

Initialization completed successfully at t[s]:    273.03

Fluid solver invoked on fresh (partially random / LCAO) wavefunctions
Running a vacuum solve first:

-------- Initial electronic minimization -----------
	FillingsUpdate:  mu: -0.083713411  nElectrons: 338.000000
ElecMinimize: Iter:   0  F: -1643.930332177985292  |grad|_K:  7.870e-05  alpha:  1.000e+00
	FillingsUpdate:  mu: -0.067598684  nElectrons: 338.000000
	SubspaceRotationAdjust: set factor to 1
ElecMinimize: Iter:   1  F: -1644.224440183150818  |grad|_K:  4.896e-05  alpha:  5.963e-01  linmin:  1.688e-05  t[s]:    304.75
	FillingsUpdate:  mu: -0.069912602  nElectrons: 338.000000
	SubspaceRotationAdjust: set factor to 1.04
ElecMinimize: Iter:   2  F: -1644.320697274274380  |grad|_K:  2.893e-05  alpha:  5.048e-01  linmin: -5.271e-07  t[s]:    322.51
	FillingsUpdate:  mu: -0.056041491  nElectrons: 338.000000
	SubspaceRotationAdjust: set factor to 0.752
ElecMinimize: Iter:   3  F: -1644.344021161346518  |grad|_K:  3.129e-05  alpha:  3.468e-01  linmin: -1.991e-06  t[s]:    347.54
	FillingsUpdate:  mu: -0.056363465  nElectrons: 338.000000
	SubspaceRotationAdjust: set factor to 0.507
ElecMinimize: Iter:   4  F: -1644.355633622365986  |grad|_K:  2.025e-05  alpha:  1.443e-01  linmin: -2.815e-05  t[s]:    366.54
	FillingsUpdate:  mu: -0.064847239  nElectrons: 338.000000
	SubspaceRotationAdjust: set factor to 0.489
ElecMinimize: Iter:   5  F: -1644.364477500148496  |grad|_K:  1.079e-05  alpha:  2.677e-01  linmin:  1.346e-04  t[s]:    384.52
	FillingsUpdate:  mu: -0.064623789  nElectrons: 338.000000
	SubspaceRotationAdjust: set factor to 0.426
ElecMinimize: Iter:   6  F: -1644.368199317550079  |grad|_K:  9.475e-06  alpha:  4.094e-01  linmin:  1.616e-05  t[s]:    404.54
	FillingsUpdate:  mu: -0.063057845  nElectrons: 338.000000
	SubspaceRotationAdjust: set factor to 0.356
ElecMinimize: Iter:   7  F: -1644.369915530822254  |grad|_K:  5.469e-06  alpha:  2.376e-01  linmin: -1.627e-06  t[s]:    423.02
	FillingsUpdate:  mu: -0.061945427  nElectrons: 338.000000
	SubspaceRotationAdjust: set factor to 0.401
ElecMinimize: Iter:   8  F: -1644.370896746431072  |grad|_K:  4.156e-06  alpha:  4.064e-01  linmin:  4.128e-06  t[s]:    441.94
	FillingsUpdate:  mu: -0.062199093  nElectrons: 338.000000
	SubspaceRotationAdjust: set factor to 0.36
ElecMinimize: Iter:   9  F: -1644.371396527785919  |grad|_K:  3.117e-06  alpha:  3.594e-01  linmin:  1.398e-06  t[s]:    461.36
	FillingsUpdate:  mu: -0.062408450  nElectrons: 338.000000
	SubspaceRotationAdjust: set factor to 0.368
ElecMinimize: Iter:  10  F: -1644.371672341206477  |grad|_K:  2.241e-06  alpha:  3.519e-01  linmin:  1.421e-06  t[s]:    479.56
	FillingsUpdate:  mu: -0.062358264  nElectrons: 338.000000
	SubspaceRotationAdjust: set factor to 0.361
ElecMinimize: Iter:  11  F: -1644.371831334004355  |grad|_K:  1.729e-06  alpha:  3.926e-01  linmin:  1.837e-06  t[s]:    499.52
	FillingsUpdate:  mu: -0.062517208  nElectrons: 338.000000
	SubspaceRotationAdjust: set factor to 0.367
ElecMinimize: Iter:  12  F: -1644.371922643095786  |grad|_K:  1.257e-06  alpha:  3.786e-01  linmin:  1.759e-06  t[s]:    517.59
	FillingsUpdate:  mu: -0.062694685  nElectrons: 338.000000
	SubspaceRotationAdjust: set factor to 0.337
ElecMinimize: Iter:  13  F: -1644.371969235832694  |grad|_K:  1.014e-06  alpha:  3.654e-01  linmin:  1.542e-06  t[s]:    536.44
	FillingsUpdate:  mu: -0.062666706  nElectrons: 338.000000
	SubspaceRotationAdjust: set factor to 0.361
ElecMinimize: Iter:  14  F: -1644.372002491580815  |grad|_K:  7.320e-07  alpha:  4.013e-01  linmin:  1.594e-06  t[s]:    555.64
	FillingsUpdate:  mu: -0.062533158  nElectrons: 338.000000
	SubspaceRotationAdjust: set factor to 0.348
ElecMinimize: Iter:  15  F: -1644.372020247348473  |grad|_K:  6.329e-07  alpha:  4.111e-01  linmin:  6.764e-07  t[s]:    573.20
	FillingsUpdate:  mu: -0.062558159  nElectrons: 338.000000
	SubspaceRotationAdjust: set factor to 0.326
ElecMinimize: Iter:  16  F: -1644.372032296677162  |grad|_K:  4.903e-07  alpha:  3.727e-01  linmin:  5.545e-07  t[s]:    593.08
	FillingsUpdate:  mu: -0.062735728  nElectrons: 338.000000
	SubspaceRotationAdjust: set factor to 0.357
ElecMinimize: Iter:  17  F: -1644.372041639093823  |grad|_K:  4.374e-07  alpha:  4.820e-01  linmin:  9.523e-07  t[s]:    611.20
	FillingsUpdate:  mu: -0.062751030  nElectrons: 338.000000
	SubspaceRotationAdjust: set factor to 0.337
ElecMinimize: Iter:  18  F: -1644.372048119967076  |grad|_K:  4.149e-07  alpha:  4.203e-01  linmin:  2.531e-07  t[s]:    629.44
	FillingsUpdate:  mu: -0.062626668  nElectrons: 338.000000
	SubspaceRotationAdjust: set factor to 0.351
ElecMinimize: Iter:  19  F: -1644.372055060490311  |grad|_K:  3.799e-07  alpha:  4.999e-01  linmin:  7.696e-07  t[s]:    649.04
	FillingsUpdate:  mu: -0.062640276  nElectrons: 338.000000
	SubspaceRotationAdjust: set factor to 0.372
ElecMinimize: Iter:  20  F: -1644.372060945083831  |grad|_K:  4.075e-07  alpha:  5.064e-01  linmin:  4.798e-07  t[s]:    666.84
	FillingsUpdate:  mu: -0.062736869  nElectrons: 338.000000
	SubspaceRotationAdjust: set factor to 0.357
ElecMinimize: Iter:  21  F: -1644.372067117971710  |grad|_K:  3.827e-07  alpha:  4.610e-01  linmin:  4.325e-07  t[s]:    685.49
	FillingsUpdate:  mu: -0.062698944  nElectrons: 338.000000
	SubspaceRotationAdjust: set factor to 0.391
ElecMinimize: Iter:  22  F: -1644.372073271596264  |grad|_K:  4.015e-07  alpha:  5.215e-01  linmin:  7.548e-07  t[s]:    702.93
	FillingsUpdate:  mu: -0.062587975  nElectrons: 338.000000
	SubspaceRotationAdjust: set factor to 0.414
ElecMinimize: Iter:  23  F: -1644.372079244500355  |grad|_K:  3.771e-07  alpha:  4.601e-01  linmin:  6.338e-07  t[s]:    720.42
	FillingsUpdate:  mu: -0.062601320  nElectrons: 338.000000
	SubspaceRotationAdjust: set factor to 0.418
ElecMinimize: Iter:  24  F: -1644.372084521307897  |grad|_K:  3.856e-07  alpha:  4.606e-01  linmin:  7.024e-07  t[s]:    738.02
	FillingsUpdate:  mu: -0.062678016  nElectrons: 338.000000
	SubspaceRotationAdjust: set factor to 0.477
ElecMinimize: Iter:  25  F: -1644.372089654547153  |grad|_K:  3.277e-07  alpha:  4.284e-01  linmin:  3.608e-07  t[s]:    756.33
	FillingsUpdate:  mu: -0.062638960  nElectrons: 338.000000
	SubspaceRotationAdjust: set factor to 0.522
ElecMinimize: Iter:  26  F: -1644.372093824480544  |grad|_K:  3.291e-07  alpha:  4.813e-01  linmin: -8.461e-08  t[s]:    774.44
	FillingsUpdate:  mu: -0.062589063  nElectrons: 338.000000
	SubspaceRotationAdjust: set factor to 0.498
ElecMinimize: Iter:  27  F: -1644.372096787829378  |grad|_K:  2.777e-07  alpha:  3.389e-01  linmin: -3.952e-08  t[s]:    791.52
	FillingsUpdate:  mu: -0.062618006  nElectrons: 338.000000
	SubspaceRotationAdjust: set factor to 0.513
ElecMinimize: Iter:  28  F: -1644.372099186987271  |grad|_K:  2.334e-07  alpha:  3.848e-01  linmin: -5.697e-07  t[s]:    809.09
	FillingsUpdate:  mu: -0.062677312  nElectrons: 338.000000
	SubspaceRotationAdjust: set factor to 0.584
ElecMinimize: Iter:  29  F: -1644.372100880505059  |grad|_K:  1.786e-07  alpha:  3.835e-01  linmin: -4.628e-07  t[s]:    826.71
	FillingsUpdate:  mu: -0.062660154  nElectrons: 338.000000
	SubspaceRotationAdjust: set factor to 0.589
ElecMinimize: Iter:  30  F: -1644.372101958923167  |grad|_K:  1.568e-07  alpha:  4.175e-01  linmin: -3.368e-07  t[s]:    846.47
	FillingsUpdate:  mu: -0.062638388  nElectrons: 338.000000
	SubspaceRotationAdjust: set factor to 0.505
ElecMinimize: Iter:  31  F: -1644.372102531167684  |grad|_K:  1.293e-07  alpha:  2.876e-01  linmin: -2.082e-08  t[s]:    864.09
	FillingsUpdate:  mu: -0.062645804  nElectrons: 338.000000
	SubspaceRotationAdjust: set factor to 0.48
ElecMinimize: Iter:  32  F: -1644.372102978873500  |grad|_K:  9.805e-08  alpha:  3.314e-01  linmin: -4.547e-08  t[s]:    883.22
	FillingsUpdate:  mu: -0.062660955  nElectrons: 338.000000
	SubspaceRotationAdjust: set factor to 0.522
ElecMinimize: Iter:  33  F: -1644.372103263788404  |grad|_K:  7.667e-08  alpha:  3.668e-01  linmin:  1.452e-08  t[s]:    900.65
	FillingsUpdate:  mu: -0.062652713  nElectrons: 338.000000
	SubspaceRotationAdjust: set factor to 0.549
ElecMinimize: Iter:  34  F: -1644.372103466403360  |grad|_K:  6.476e-08  alpha:  4.269e-01  linmin:  6.810e-08  t[s]:    918.40
	FillingsUpdate:  mu: -0.062642640  nElectrons: 338.000000
	SubspaceRotationAdjust: set factor to 0.497
ElecMinimize: Iter:  35  F: -1644.372103580987869  |grad|_K:  5.958e-08  alpha:  3.384e-01  linmin:  7.851e-09  t[s]:    936.16
	FillingsUpdate:  mu: -0.062642428  nElectrons: 338.000000
	SubspaceRotationAdjust: set factor to 0.462
ElecMinimize: Iter:  36  F: -1644.372103683304658  |grad|_K:  4.891e-08  alpha:  3.569e-01  linmin:  6.203e-08  t[s]:    953.21
	FillingsUpdate:  mu: -0.062650785  nElectrons: 338.000000
	SubspaceRotationAdjust: set factor to 0.482
ElecMinimize: Iter:  37  F: -1644.372103766306282  |grad|_K:  4.347e-08  alpha:  4.299e-01  linmin:  6.193e-08  t[s]:    971.79
	FillingsUpdate:  mu: -0.062645863  nElectrons: 338.000000
	SubspaceRotationAdjust: set factor to 0.508
ElecMinimize: Iter:  38  F: -1644.372103836999258  |grad|_K:  4.229e-08  alpha:  4.635e-01  linmin:  6.968e-09  t[s]:    990.42
	FillingsUpdate:  mu: -0.062637985  nElectrons: 338.000000
	SubspaceRotationAdjust: set factor to 0.457
ElecMinimize: Iter:  39  F: -1644.372103894004113  |grad|_K:  4.147e-08  alpha:  3.945e-01  linmin:  1.352e-09  t[s]:   1008.98
	FillingsUpdate:  mu: -0.062642060  nElectrons: 338.000000
	SubspaceRotationAdjust: set factor to 0.473
ElecMinimize: Iter:  40  F: -1644.372103953211081  |grad|_K:  3.876e-08  alpha:  4.261e-01  linmin: -3.298e-08  t[s]:   1028.45
	FillingsUpdate:  mu: -0.062652008  nElectrons: 338.000000
	SubspaceRotationAdjust: set factor to 0.509
ElecMinimize: Iter:  41  F: -1644.372104010707744  |grad|_K:  3.568e-08  alpha:  4.738e-01  linmin:  2.770e-08  t[s]:   1046.78
	FillingsUpdate:  mu: -0.062647327  nElectrons: 338.000000
	SubspaceRotationAdjust: set factor to 0.535
ElecMinimize: Iter:  42  F: -1644.372104059632875  |grad|_K:  3.550e-08  alpha:  4.759e-01  linmin: -2.050e-08  t[s]:   1066.76
	FillingsUpdate:  mu: -0.062642128  nElectrons: 338.000000
	SubspaceRotationAdjust: set factor to 0.47
ElecMinimize: Iter:  43  F: -1644.372104094509496  |grad|_K:  3.149e-08  alpha:  3.425e-01  linmin:  1.530e-08  t[s]:   1085.45
	FillingsUpdate:  mu: -0.062645232  nElectrons: 338.000000
	SubspaceRotationAdjust: set factor to 0.499
ElecMinimize: Iter:  44  F: -1644.372104125881151  |grad|_K:  2.567e-08  alpha:  3.915e-01  linmin: -1.008e-07  t[s]:   1103.56
	FillingsUpdate:  mu: -0.062651184  nElectrons: 338.000000
	SubspaceRotationAdjust: set factor to 0.528
ElecMinimize: Iter:  45  F: -1644.372104148736980  |grad|_K:  2.135e-08  alpha:  4.289e-01  linmin:  5.109e-08  t[s]:   1123.15
	FillingsUpdate:  mu: -0.062648180  nElectrons: 338.000000
	SubspaceRotationAdjust: set factor to 0.552
ElecMinimize: Iter:  46  F: -1644.372104164585835  |grad|_K:  1.925e-08  alpha:  4.306e-01  linmin:  6.655e-09  t[s]:   1140.53
	FillingsUpdate:  mu: -0.062644722  nElectrons: 338.000000
	SubspaceRotationAdjust: set factor to 0.484
ElecMinimize: Iter:  47  F: -1644.372104174481592  |grad|_K:  1.671e-08  alpha:  3.304e-01  linmin: -5.913e-08  t[s]:   1159.61
	FillingsUpdate:  mu: -0.062645992  nElectrons: 338.000000
	SubspaceRotationAdjust: set factor to 0.473
ElecMinimize: Iter:  48  F: -1644.372104182962858  |grad|_K:  1.422e-08  alpha:  3.762e-01  linmin: -6.138e-08  t[s]:   1178.66
ElecMinimize: Converged (|Delta F|<1.000000e-08 for 2 iters).
Setting wave functions to eigenvectors of Hamiltonian
Vacuum energy after initial minimize, F = -1644.372104182962858

	Linear fluid (dielectric constant: 78.4, screening length: 5.74355 Bohr) occupying 0.744250 of unit cell:	Completed after 22 iterations at t[s]:   1190.19

-------- Electronic minimization -----------
	Linear fluid (dielectric constant: 78.4, screening length: 5.74355 Bohr) occupying 0.744250 of unit cell:	Completed after 0 iterations at t[s]:   1198.24
	FillingsUpdate:  mu: -0.149487101  nElectrons: 338.000000
ElecMinimize: Iter:   0  F: -1644.372751513506955  |grad|_K:  3.120e-06  alpha:  1.000e+00
	Linear fluid (dielectric constant: 78.4, screening length: 5.74355 Bohr) occupying 0.744948 of unit cell:	Completed after 17 iterations at t[s]:   1220.70
	Linear fluid (dielectric constant: 78.4, screening length: 5.74355 Bohr) occupying 0.744744 of unit cell:	Completed after 14 iterations at t[s]:   1232.74
	FillingsUpdate:  mu: -0.147272917  nElectrons: 338.000000
	SubspaceRotationAdjust: set factor to 0.369
ElecMinimize: Iter:   1  F: -1644.373302268242924  |grad|_K:  3.182e-06  alpha:  7.028e-01  linmin: -1.701e-07  t[s]:   1241.15
	Linear fluid (dielectric constant: 78.4, screening length: 5.74355 Bohr) occupying 0.745443 of unit cell:	Completed after 15 iterations at t[s]:   1253.73
	Linear fluid (dielectric constant: 78.4, screening length: 5.74355 Bohr) occupying 0.745106 of unit cell:	Completed after 14 iterations at t[s]:   1265.21
	FillingsUpdate:  mu: -0.146865003  nElectrons: 338.000000
	SubspaceRotationAdjust: set factor to 0.293
ElecMinimize: Iter:   2  F: -1644.373594138815633  |grad|_K:  1.916e-06  alpha:  3.582e-01  linmin:  8.513e-07  t[s]:   1273.15
	Linear fluid (dielectric constant: 78.4, screening length: 5.74355 Bohr) occupying 0.745270 of unit cell:	Completed after 9 iterations at t[s]:   1282.87
	Linear fluid (dielectric constant: 78.4, screening length: 5.74355 Bohr) occupying 0.745329 of unit cell:	Completed after 6 iterations at t[s]:   1292.58
	FillingsUpdate:  mu: -0.147128057  nElectrons: 338.000000
	SubspaceRotationAdjust: set factor to 0.322
ElecMinimize: Iter:   3  F: -1644.373738849507845  |grad|_K:  1.041e-06  alpha:  4.892e-01  linmin: -4.272e-07  t[s]:   1300.58
	Linear fluid (dielectric constant: 78.4, screening length: 5.74355 Bohr) occupying 0.745402 of unit cell:	Completed after 8 iterations at t[s]:   1309.42
	Linear fluid (dielectric constant: 78.4, screening length: 5.74355 Bohr) occupying 0.745408 of unit cell:	Completed after 2 iterations at t[s]:   1318.13
	FillingsUpdate:  mu: -0.146779058  nElectrons: 338.000000
	SubspaceRotationAdjust: set factor to 0.368
ElecMinimize: Iter:   4  F: -1644.373784965036748  |grad|_K:  6.454e-07  alpha:  5.266e-01  linmin: -2.933e-06  t[s]:   1326.89
	Linear fluid (dielectric constant: 78.4, screening length: 5.74355 Bohr) occupying 0.745427 of unit cell:	Completed after 5 iterations at t[s]:   1335.34
	Linear fluid (dielectric constant: 78.4, screening length: 5.74355 Bohr) occupying 0.745427 of unit cell:	Completed after 0 iterations at t[s]:   1343.97
	FillingsUpdate:  mu: -0.146762227  nElectrons: 338.000000
	SubspaceRotationAdjust: set factor to 0.395
ElecMinimize: Iter:   5  F: -1644.373802332366722  |grad|_K:  4.294e-07  alpha:  5.131e-01  linmin:  2.542e-06  t[s]:   1351.98
	Linear fluid (dielectric constant: 78.4, screening length: 5.74355 Bohr) occupying 0.745424 of unit cell:	Completed after 3 iterations at t[s]:   1360.29
	Linear fluid (dielectric constant: 78.4, screening length: 5.74355 Bohr) occupying 0.745424 of unit cell:	Completed after 0 iterations at t[s]:   1369.46
	FillingsUpdate:  mu: -0.146775467  nElectrons: 338.000000
	SubspaceRotationAdjust: set factor to 0.418
ElecMinimize: Iter:   6  F: -1644.373808965968237  |grad|_K:  2.999e-07  alpha:  4.463e-01  linmin:  1.532e-05  t[s]:   1377.40
	Linear fluid (dielectric constant: 78.4, screening length: 5.74355 Bohr) occupying 0.745414 of unit cell:	Completed after 2 iterations at t[s]:   1384.67
	Linear fluid (dielectric constant: 78.4, screening length: 5.74355 Bohr) occupying 0.745414 of unit cell:	Completed after 0 iterations at t[s]:   1393.12
	FillingsUpdate:  mu: -0.146773939  nElectrons: 338.000000
	SubspaceRotationAdjust: set factor to 0.436
ElecMinimize: Iter:   7  F: -1644.373812192555079  |grad|_K:  1.781e-07  alpha:  4.539e-01  linmin: -4.432e-05  t[s]:   1401.54
	Linear fluid (dielectric constant: 78.4, screening length: 5.74355 Bohr) occupying 0.745404 of unit cell:	Completed after 3 iterations at t[s]:   1409.71
	Linear fluid (dielectric constant: 78.4, screening length: 5.74355 Bohr) occupying 0.745402 of unit cell:	Completed after 0 iterations at t[s]:   1419.33
	FillingsUpdate:  mu: -0.146823246  nElectrons: 338.000000
	SubspaceRotationAdjust: set factor to 0.425
ElecMinimize: Iter:   8  F: -1644.373813562695659  |grad|_K:  1.183e-07  alpha:  5.149e-01  linmin: -1.006e-04  t[s]:   1426.91
	Linear fluid (dielectric constant: 78.4, screening length: 5.74355 Bohr) occupying 0.745394 of unit cell:	Completed after 2 iterations at t[s]:   1433.94
	Linear fluid (dielectric constant: 78.4, screening length: 5.74355 Bohr) occupying 0.745395 of unit cell:	Completed after 0 iterations at t[s]:   1442.29
	FillingsUpdate:  mu: -0.146845571  nElectrons: 338.000000
	SubspaceRotationAdjust: set factor to 0.488
ElecMinimize: Iter:   9  F: -1644.373814060309769  |grad|_K:  8.460e-08  alpha:  4.290e-01  linmin:  4.164e-06  t[s]:   1450.19
	Linear fluid (dielectric constant: 78.4, screening length: 5.74355 Bohr) occupying 0.745391 of unit cell:	Completed after 1 iterations at t[s]:   1458.24
	Linear fluid (dielectric constant: 78.4, screening length: 5.74355 Bohr) occupying 0.745391 of unit cell:	Completed after 0 iterations at t[s]:   1468.29
	FillingsUpdate:  mu: -0.146834695  nElectrons: 338.000000
	SubspaceRotationAdjust: set factor to 0.485
ElecMinimize: Iter:  10  F: -1644.373814302348819  |grad|_K:  4.761e-08  alpha:  4.203e-01  linmin: -2.962e-05  t[s]:   1476.54
	Linear fluid (dielectric constant: 78.4, screening length: 5.74355 Bohr) occupying 0.745389 of unit cell:	Completed after 0 iterations at t[s]:   1482.49
	Linear fluid (dielectric constant: 78.4, screening length: 5.74355 Bohr) occupying 0.745387 of unit cell:	Completed after 0 iterations at t[s]:   1488.95
	FillingsUpdate:  mu: -0.146834418  nElectrons: 338.000000
	SubspaceRotationAdjust: set factor to 0.554
ElecMinimize: Iter:  11  F: -1644.373814419243899  |grad|_K:  3.455e-08  alpha:  6.730e-01  linmin:  1.282e-05  t[s]:   1493.02
	Linear fluid (dielectric constant: 78.4, screening length: 5.74355 Bohr) occupying 0.745385 of unit cell:	Completed after 2 iterations at t[s]:   1497.06
	Linear fluid (dielectric constant: 78.4, screening length: 5.74355 Bohr) occupying 0.745387 of unit cell:	Completed after 0 iterations at t[s]:   1501.40
	FillingsUpdate:  mu: -0.146829319  nElectrons: 338.000000
	SubspaceRotationAdjust: set factor to 0.43
ElecMinimize: Iter:  12  F: -1644.373814425071259  |grad|_K:  7.061e-08  alpha:  2.350e-01  linmin:  7.449e-05  t[s]:   1506.20
	Linear fluid (dielectric constant: 78.4, screening length: 5.74355 Bohr) occupying 0.745384 of unit cell:	Completed after 0 iterations at t[s]:   1510.40
	Linear fluid (dielectric constant: 78.4, screening length: 5.74355 Bohr) occupying 0.745386 of unit cell:	Completed after 0 iterations at t[s]:   1515.20
	FillingsUpdate:  mu: -0.146829311  nElectrons: 338.000000
	SubspaceRotationAdjust: set factor to 0.391
ElecMinimize: Iter:  13  F: -1644.373814438220052  |grad|_K:  6.033e-08  alpha:  7.427e-02  linmin: -3.490e-06  t[s]:   1519.76
	Linear fluid (dielectric constant: 78.4, screening length: 5.74355 Bohr) occupying 0.745385 of unit cell:	Completed after 0 iterations at t[s]:   1523.62
	Linear fluid (dielectric constant: 78.4, screening length: 5.74355 Bohr) occupying 0.745385 of unit cell:	Completed after 0 iterations at t[s]:   1527.80
	FillingsUpdate:  mu: -0.146829354  nElectrons: 338.000000
	SubspaceRotationAdjust: set factor to 0.461
ElecMinimize: Iter:  14  F: -1644.373814472858385  |grad|_K:  5.876e-08  alpha:  9.902e-02  linmin: -8.269e-05  t[s]:   1531.87
	Linear fluid (dielectric constant: 78.4, screening length: 5.74355 Bohr) occupying 0.745384 of unit cell:	Completed after 2 iterations at t[s]:   1536.16
	Linear fluid (dielectric constant: 78.4, screening length: 5.74355 Bohr) occupying 0.745384 of unit cell:	Completed after 0 iterations at t[s]:   1540.63
ElecMinimize: 	Step increased F by 1.856074e-08, reducing alpha to 2.315140e-03.
	Linear fluid (dielectric constant: 78.4, screening length: 5.74355 Bohr) occupying 0.745385 of unit cell:	Completed after 1 iterations at t[s]:   1548.04
ElecMinimize: 	Step increased F by 2.734350e-08, reducing alpha to 2.315140e-04.
	Linear fluid (dielectric constant: 78.4, screening length: 5.74355 Bohr) occupying 0.745385 of unit cell:	Completed after 0 iterations at t[s]:   1556.42
ElecMinimize: 	Step increased F by 2.647062e-08, reducing alpha to 2.315140e-05.
ElecMinimize: 	Step failed to reduce F after 3 attempts. Quitting step.
ElecMinimize: 	Undoing step.
	Linear fluid (dielectric constant: 78.4, screening length: 5.74355 Bohr) occupying 0.745385 of unit cell:	Completed after 0 iterations at t[s]:   1564.74
ElecMinimize: 	Step failed: resetting search direction.
	FillingsUpdate:  mu: -0.146839177  nElectrons: 338.000000
	SubspaceRotationAdjust: set factor to 0.345
ElecMinimize: Iter:  15  F: -1644.373814446381175  |grad|_K:  4.876e-08  alpha:  2.315e-05
	Linear fluid (dielectric constant: 78.4, screening length: 5.74355 Bohr) occupying 0.745385 of unit cell:	Completed after 0 iterations at t[s]:   1572.71
ElecMinimize: 	Predicted alpha/alphaT>3.000000, increasing alphaT to 2.970700e-01.
	Linear fluid (dielectric constant: 78.4, screening length: 5.74355 Bohr) occupying 0.745385 of unit cell:	Completed after 1 iterations at t[s]:   1577.44
	Linear fluid (dielectric constant: 78.4, screening length: 5.74355 Bohr) occupying 0.745385 of unit cell:	Completed after 0 iterations at t[s]:   1581.82
	FillingsUpdate:  mu: -0.146835440  nElectrons: 338.000000
	SubspaceRotationAdjust: set factor to 0.227
ElecMinimize: Iter:  16  F: -1644.373814463066083  |grad|_K:  2.820e-08  alpha:  1.558e-01  linmin:  7.517e-05  t[s]:   1585.93
	Linear fluid (dielectric constant: 78.4, screening length: 5.74355 Bohr) occupying 0.745385 of unit cell:	Completed after 0 iterations at t[s]:   1589.85
	Linear fluid (dielectric constant: 78.4, screening length: 5.74355 Bohr) occupying 0.745385 of unit cell:	Completed after 0 iterations at t[s]:   1594.49
	FillingsUpdate:  mu: -0.146835454  nElectrons: 338.000000
	SubspaceRotationAdjust: set factor to 0.31
ElecMinimize: Iter:  17  F: -1644.373814484332343  |grad|_K:  2.915e-08  alpha:  3.353e-01  linmin: -4.633e-06  t[s]:   1598.80
	Linear fluid (dielectric constant: 78.4, screening length: 5.74355 Bohr) occupying 0.745386 of unit cell:	Completed after 1 iterations at t[s]:   1603.20
	Linear fluid (dielectric constant: 78.4, screening length: 5.74355 Bohr) occupying 0.745386 of unit cell:	Completed after 0 iterations at t[s]:   1608.22
ElecMinimize: 	Step increased F by 5.026777e-09, reducing alpha to 1.360920e-02.
	Linear fluid (dielectric constant: 78.4, screening length: 5.74355 Bohr) occupying 0.745385 of unit cell:	Completed after 0 iterations at t[s]:   1616.28
ElecMinimize: 	Step increased F by 6.564505e-09, reducing alpha to 1.360920e-03.
	Linear fluid (dielectric constant: 78.4, screening length: 5.74355 Bohr) occupying 0.745385 of unit cell:	Completed after 0 iterations at t[s]:   1623.62
ElecMinimize: 	Step increased F by 6.911478e-09, reducing alpha to 1.360920e-04.
ElecMinimize: 	Step failed to reduce F after 3 attempts. Quitting step.
ElecMinimize: 	Undoing step.
	Linear fluid (dielectric constant: 78.4, screening length: 5.74355 Bohr) occupying 0.745385 of unit cell:	Completed after 0 iterations at t[s]:   1631.00
ElecMinimize: 	Step failed: resetting search direction.
	FillingsUpdate:  mu: -0.146840453  nElectrons: 338.000000
	SubspaceRotationAdjust: set factor to 0.31
ElecMinimize: Iter:  18  F: -1644.373814477428596  |grad|_K:  2.384e-08  alpha:  1.361e-04
	Linear fluid (dielectric constant: 78.4, screening length: 5.74355 Bohr) occupying 0.745386 of unit cell:	Completed after 0 iterations at t[s]:   1639.01
	Linear fluid (dielectric constant: 78.4, screening length: 5.74355 Bohr) occupying 0.745385 of unit cell:	Completed after 0 iterations at t[s]:   1643.31
	FillingsUpdate:  mu: -0.146840459  nElectrons: 338.000000
	SubspaceRotationAdjust: set factor to 0.37
ElecMinimize: Iter:  19  F: -1644.373814488961216  |grad|_K:  1.108e-08  alpha:  2.510e-01  linmin: -5.103e-06  t[s]:   1647.56
	Linear fluid (dielectric constant: 78.4, screening length: 5.74355 Bohr) occupying 0.745386 of unit cell:	Completed after 0 iterations at t[s]:   1651.35
ElecMinimize: 	Predicted alpha/alphaT>3.000000, increasing alphaT to 7.529915e-01.
	Linear fluid (dielectric constant: 78.4, screening length: 5.74355 Bohr) occupying 0.745386 of unit cell:	Completed after 0 iterations at t[s]:   1656.27
	Linear fluid (dielectric constant: 78.4, screening length: 5.74355 Bohr) occupying 0.745387 of unit cell:	Completed after 0 iterations at t[s]:   1661.47
	FillingsUpdate:  mu: -0.146840354  nElectrons: 338.000000
	SubspaceRotationAdjust: set factor to 0.377
ElecMinimize: Iter:  20  F: -1644.373814490572158  |grad|_K:  1.542e-08  alpha:  1.177e+00  linmin:  5.728e-05  t[s]:   1665.35
	Linear fluid (dielectric constant: 78.4, screening length: 5.74355 Bohr) occupying 0.745389 of unit cell:	Completed after 1 iterations at t[s]:   1669.24
	Linear fluid (dielectric constant: 78.4, screening length: 5.74355 Bohr) occupying 0.745387 of unit cell:	Completed after 0 iterations at t[s]:   1673.92
ElecMinimize: 	Step increased F by 3.914010e-09, reducing alpha to 2.919996e-02.
	Linear fluid (dielectric constant: 78.4, screening length: 5.74355 Bohr) occupying 0.745387 of unit cell:	Completed after 0 iterations at t[s]:   1681.34
ElecMinimize: 	Step increased F by 3.714376e-09, reducing alpha to 2.919996e-03.
	Linear fluid (dielectric constant: 78.4, screening length: 5.74355 Bohr) occupying 0.745387 of unit cell:	Completed after 0 iterations at t[s]:   1688.54
ElecMinimize: 	Step increased F by 3.966761e-09, reducing alpha to 2.919996e-04.
ElecMinimize: 	Step failed to reduce F after 3 attempts. Quitting step.
ElecMinimize: 	Undoing step.
	Linear fluid (dielectric constant: 78.4, screening length: 5.74355 Bohr) occupying 0.745387 of unit cell:	Completed after 0 iterations at t[s]:   1696.19
ElecMinimize: 	Step failed: resetting search direction.
	FillingsUpdate:  mu: -0.146843477  nElectrons: 338.000000
	SubspaceRotationAdjust: set factor to 0.383
ElecMinimize: Iter:  21  F: -1644.373814486614947  |grad|_K:  2.835e-08  alpha:  2.920e-04
	Linear fluid (dielectric constant: 78.4, screening length: 5.74355 Bohr) occupying 0.745387 of unit cell:	Completed after 3 iterations at t[s]:   1705.98
	Linear fluid (dielectric constant: 78.4, screening length: 5.74355 Bohr) occupying 0.745387 of unit cell:	Completed after 1 iterations at t[s]:   1711.15
	FillingsUpdate:  mu: -0.146837817  nElectrons: 338.000000
	SubspaceRotationAdjust: set factor to 0.269
ElecMinimize: Iter:  22  F: -1644.373814504198208  |grad|_K:  1.398e-08  alpha:  2.588e-01  linmin:  7.874e-04  t[s]:   1715.28
	Linear fluid (dielectric constant: 78.4, screening length: 5.74355 Bohr) occupying 0.745387 of unit cell:	Completed after 0 iterations at t[s]:   1719.04
ElecMinimize: 	Predicted alpha/alphaT>3.000000, increasing alphaT to 7.763823e-01.
	Linear fluid (dielectric constant: 78.4, screening length: 5.74355 Bohr) occupying 0.745387 of unit cell:	Completed after 0 iterations at t[s]:   1723.55
	Linear fluid (dielectric constant: 78.4, screening length: 5.74355 Bohr) occupying 0.745387 of unit cell:	Completed after 0 iterations at t[s]:   1728.12
ElecMinimize: 	Step increased F by 3.940386e-10, reducing alpha to 4.263198e-02.
	Linear fluid (dielectric constant: 78.4, screening length: 5.74355 Bohr) occupying 0.745387 of unit cell:	Completed after 0 iterations at t[s]:   1735.16
ElecMinimize: 	Step increased F by 5.408310e-09, reducing alpha to 4.263198e-03.
	Linear fluid (dielectric constant: 78.4, screening length: 5.74355 Bohr) occupying 0.745387 of unit cell:	Completed after 0 iterations at t[s]:   1742.60
ElecMinimize: 	Step increased F by 6.093387e-09, reducing alpha to 4.263198e-04.
ElecMinimize: 	Step failed to reduce F after 3 attempts. Quitting step.
ElecMinimize: 	Undoing step.
	Linear fluid (dielectric constant: 78.4, screening length: 5.74355 Bohr) occupying 0.745387 of unit cell:	Completed after 0 iterations at t[s]:   1751.05
ElecMinimize: 	Step failed: resetting search direction.
	FillingsUpdate:  mu: -0.146837863  nElectrons: 338.000000
	SubspaceRotationAdjust: set factor to 0.45
ElecMinimize: Iter:  23  F: -1644.373814498120510  |grad|_K:  1.006e-08  alpha:  4.263e-04
	Linear fluid (dielectric constant: 78.4, screening length: 5.74355 Bohr) occupying 0.745387 of unit cell:	Completed after 0 iterations at t[s]:   1759.44
	Linear fluid (dielectric constant: 78.4, screening length: 5.74355 Bohr) occupying 0.745387 of unit cell:	Completed after 0 iterations at t[s]:   1763.68
	FillingsUpdate:  mu: -0.146837910  nElectrons: 338.000000
	SubspaceRotationAdjust: set factor to 0.511
ElecMinimize: Iter:  24  F: -1644.373814503708672  |grad|_K:  1.393e-08  alpha:  6.530e-01  linmin: -2.483e-05  t[s]:   1767.78
	Linear fluid (dielectric constant: 78.4, screening length: 5.74355 Bohr) occupying 0.745387 of unit cell:	Completed after 2 iterations at t[s]:   1771.94
	Linear fluid (dielectric constant: 78.4, screening length: 5.74355 Bohr) occupying 0.745387 of unit cell:	Completed after 0 iterations at t[s]:   1776.25
	FillingsUpdate:  mu: -0.146852498  nElectrons: 338.000000
	SubspaceRotationAdjust: set factor to 0.386
ElecMinimize: Iter:  25  F: -1644.373814519195776  |grad|_K:  6.744e-08  alpha:  6.815e-02  linmin:  4.142e-04  t[s]:   1780.37
ElecMinimize: 	Bad step direction: g.d > 0.
ElecMinimize: 	Undoing step.
	Linear fluid (dielectric constant: 78.4, screening length: 5.74355 Bohr) occupying 0.745387 of unit cell:	Completed after 0 iterations at t[s]:   1784.16
ElecMinimize: 	Step failed: resetting search direction.
	FillingsUpdate:  mu: -0.146852498  nElectrons: 338.000000
	SubspaceRotationAdjust: set factor to 0.323
ElecMinimize: Iter:  26  F: -1644.373814519210327  |grad|_K:  6.172e-08  alpha:  0.000e+00
	Linear fluid (dielectric constant: 78.4, screening length: 5.74355 Bohr) occupying 0.745387 of unit cell:	Completed after 1 iterations at t[s]:   1792.85
	Linear fluid (dielectric constant: 78.4, screening length: 5.74355 Bohr) occupying 0.745387 of unit cell:	Completed after 0 iterations at t[s]:   1797.87
ElecMinimize: 	Step increased F by 1.169883e-08, reducing alpha to 3.323211e-03.
	Linear fluid (dielectric constant: 78.4, screening length: 5.74355 Bohr) occupying 0.745387 of unit cell:	Completed after 0 iterations at t[s]:   1805.87
ElecMinimize: 	Step increased F by 2.126649e-08, reducing alpha to 3.323211e-04.
	Linear fluid (dielectric constant: 78.4, screening length: 5.74355 Bohr) occupying 0.745387 of unit cell:	Completed after 0 iterations at t[s]:   1813.33
ElecMinimize: 	Step increased F by 2.227989e-08, reducing alpha to 3.323211e-05.
ElecMinimize: 	Step failed to reduce F after 3 attempts. Quitting step.
ElecMinimize: 	Undoing step.
	Linear fluid (dielectric constant: 78.4, screening length: 5.74355 Bohr) occupying 0.745387 of unit cell:	Completed after 0 iterations at t[s]:   1820.44
ElecMinimize: 	Step failed along negative gradient direction.
ElecMinimize: Probably at roundoff error limit. (Stopping)
Setting wave functions to eigenvectors of Hamiltonian
Single-point solvation energy estimate, DeltaF = -0.001710313986678

# Ionic positions in lattice coordinates:
ion Te   0.264578720521482   0.293225782340057   0.609031877762474 0
ion Te   0.735421286145186   0.293225782340057   0.609031877762474 0
ion Te   0.000000003333334   0.788266867576549   0.390898338331579 0
ion Te   0.500000003333334   0.784589092680070   0.380766557007455 0
ion Te   0.264578720521482   0.706774225659943   0.609031877762474 0
ion Te   0.735421286145186   0.706774225659943   0.609031877762474 0
ion Te   0.000000003333334   0.211733140423451   0.390898338331579 0
ion Te   0.500000003333334   0.215410915319929   0.380766557007455 0
ion Pd   0.123947810115377   0.251872343582046   0.504342663004432 0
ion Pd   0.622941698393972   0.243364872243885   0.494449792283614 0
ion Pd   0.000000003333334   0.500000004000000   0.437609022447548 0
ion Pd   0.500000003333334   0.500000004000000   0.431217929735757 0
ion Pd   0.123947810115377   0.748127664417954   0.504342663004432 0
ion Pd   0.622941698393972   0.756635135756114   0.494449792283614 0
ion Pd   0.377058308272695   0.243364872243885   0.494449792283614 0
ion Pd   0.876052196551291   0.251872343582046   0.504342663004432 0
ion Pd   0.377058308272695   0.756635135756114   0.494449792283614 0
ion Pd   0.876052196551291   0.748127664417954   0.504342663004432 0
ion Pd   0.248603997756525   0.000000004000000   0.566184194131648 0
ion Pd   0.751396008910142   0.000000004000000   0.566184194131648 0
ion Pb   0.251128632993207   0.000000004000000   0.415572690805236 0
ion Pb   0.748871373673460   0.000000004000000   0.415572690805236 0
ion Pb   0.000000003333334   0.500000004000000   0.589219183273141 0
ion Pb   0.251664615305841   0.500000004000000   0.435759671757952 0
ion Pb   0.748335391360827   0.500000004000000   0.435759671757952 0
ion Pb   0.000000003333334   0.000000004000000   0.574308639259319 0
ion Pb   0.500000003333334   0.000000004000000   0.573481043014405 0


# Forces in Lattice coordinates:
force Te  -0.001654283942852   0.046140895035373   0.238228186940540 0
force Te   0.001654283942845   0.046140895035365   0.238228186940426 0
force Te   0.000000000000000   0.059095704714482  -0.215307804923477 0
force Te   0.000000000000000   0.061468033853595  -0.231348052387355 0
force Te  -0.001654283942845  -0.046140895035373   0.238228186940539 0
force Te   0.001654283942845  -0.046140895035373   0.238228186940426 0
force Te   0.000000000000000  -0.059095704714482  -0.215307804923477 0
force Te   0.000000000000000  -0.061468033853588  -0.231348052387242 0
force Pd   0.010393043394333  -0.002998920554586   0.007265264649550 0
force Pd   0.009173629502070  -0.006566537726048  -0.015677503993421 0
force Pd   0.000000000000000   0.000000000000000   0.010243485356093 0
force Pd   0.000000000000000   0.000000000000000   0.031932206043951 0
force Pd   0.010393043394330   0.002998920554585   0.007265264649578 0
force Pd   0.009173629502070   0.006566537726048  -0.015677503993421 0
force Pd  -0.009173629502070  -0.006566537726040  -0.015677503993421 0
force Pd  -0.010393043394333  -0.002998920554586   0.007265264649550 0
force Pd  -0.009173629502077   0.006566537726048  -0.015677503993421 0
force Pd  -0.010393043394333   0.002998920554586   0.007265264649550 0
force Pd   0.007961307716591   0.000000000000000   0.007029651603685 0
force Pd  -0.007961307716591   0.000000000000000   0.007029651603685 0
force Pb  -0.001993858188063   0.000000000000000  -0.006631901881486 0
force Pb   0.001993858188063   0.000000000000000  -0.006631901881486 0
force Pb   0.000000000000000   0.000000000000000   0.014201424964988 0
force Pb  -0.002823497520082   0.000000000000000  -0.027504384179086 0
force Pb   0.002823497520082   0.000000000000000  -0.027504384179086 0
force Pb   0.000000000000000   0.000000000000000   0.019829677494120 0
force Pb   0.000000000000000   0.000000000000000  -0.029809212027814 0

# Energy components:
   A_diel =       -0.0030832900567815
   Eewald =     8374.2660784391209745
       EH =     9838.0183999775854318
     Eloc =   -19965.5344159671913076
      Enl =     -118.8155209316737171
      Exc =     -467.9768947078637780
 Exc_core =      228.6756325401910885
       KE =      467.0249730148427716
-------------------------------------
     Etot =    -1644.3448309250441071
       TS =        0.0289835719054190
-------------------------------------
        F =    -1644.3738144969495352

IonicMinimize: Iter:   0  F: -1644.373814496949535  |grad|_K:  0.000e+00  t[s]:   1827.94
IonicMinimize: Converged (|grad|_K<1.000000e-04).

#--- Lowdin population analysis ---
# oxidation-state Te +0.580 +0.580 +0.560 +0.546 +0.580 +0.580 +0.560 +0.546
# oxidation-state Pd -0.889 -0.831 -0.842 -0.764 -0.889 -0.831 -0.831 -0.889 -0.831 -0.889 -0.834 -0.834
# oxidation-state Pb +0.717 +0.717 +0.734 +1.015 +1.015 +1.021 +0.960


Dumping 'NbTe2.fillings' ... done
Dumping 'NbTe2.wfns' ... done
Dumping 'NbTe2.fluidState' ... done
Dumping 'NbTe2.eigenvals' ... done
End date and time: Wed Jul 15 22:19:05 2020  (Duration: 0-0:30:31.11)
Done!
