
*************** JDFTx 1.5.0  ***************

Start date and time: Thu Jul 16 09:35:51 2020
Executable jdftx_gpu with command-line: -i Charged.in -o Charged.out
Running on hosts (process indices):  amax (0-5)
Divided in process groups (process indices):  0 (0)  1 (1)  2 (2)  3 (3)  4 (4)  5 (5)
gpuInit: Found compatible cuda device 0 'Tesla K80'
gpuInit: Found compatible cuda device 1 'Tesla K80'
gpuInit: Found compatible cuda device 2 'Tesla K80'
gpuInit: Found compatible cuda device 3 'Tesla K80'
gpuInit: Found compatible cuda device 4 'Tesla K80'
gpuInit: Found compatible cuda device 5 'Tesla K80'
gpuInit: Selected device 0
Resource initialization completed at t[s]:      9.16
Run totals: 6 processes, 24 threads, 6 GPUs


Input parsed successfully to the following command list (including defaults):

basis kpoint-dependent
cache-projectors no
coords-type Lattice
core-overlap-check none
coulomb-interaction Slab 001
coulomb-truncation-embed 0 0 0.5
davidson-band-ratio 1.1
dump End State
dump-name NbTe2.$VAR
elec-cutoff 20 100
elec-eigen-algo Davidson
elec-ex-corr gga-PBE
elec-smearing Gauss 0.0073499
electronic-minimize  \
	dirUpdateScheme      FletcherReeves \
	linminMethod         DirUpdateRecommended \
	nIterations          500 \
	history              15 \
	knormThreshold       0 \
	energyDiffThreshold  1e-08 \
	nEnergyDiff          2 \
	alphaTstart          1 \
	alphaTmin            1e-10 \
	updateTestStepSize   yes \
	alphaTreduceFactor   0.1 \
	alphaTincreaseFactor 3 \
	nAlphaAdjustMax      3 \
	wolfeEnergy          0.0001 \
	wolfeGradient        0.9 \
	fdTest               no
exchange-regularization WignerSeitzTruncated
fluid LinearPCM 298.000000 1.013250
fluid-anion F- 1 MeanFieldLJ \
	epsBulk 1 \
	pMol 0 \
	epsInf 1 \
	Pvap 0 \
	sigmaBulk 0 \
	Rvdw 2.24877 \
	Res 0 \
	tauNuc 343133
fluid-cation Na+ 1 MeanFieldLJ \
	epsBulk 1 \
	pMol 0 \
	epsInf 1 \
	Pvap 0 \
	sigmaBulk 0 \
	Rvdw 2.19208 \
	Res 0 \
	tauNuc 343133
fluid-ex-corr lda-TF lda-PZ
fluid-gummel-loop 10 1.000000e-05
fluid-minimize  \
	dirUpdateScheme      PolakRibiere \
	linminMethod         DirUpdateRecommended \
	nIterations          400 \
	history              15 \
	knormThreshold       1e-11 \
	energyDiffThreshold  0 \
	nEnergyDiff          2 \
	alphaTstart          1 \
	alphaTmin            1e-10 \
	updateTestStepSize   yes \
	alphaTreduceFactor   0.1 \
	alphaTincreaseFactor 3 \
	nAlphaAdjustMax      6 \
	wolfeEnergy          0.0001 \
	wolfeGradient        0.9 \
	fdTest               no
fluid-solvent H2O 55.338 ScalarEOS \
	epsBulk 78.4 \
	pMol 0.92466 \
	epsInf 1.77 \
	Pvap 1.06736e-10 \
	sigmaBulk 4.62e-05 \
	Rvdw 2.61727 \
	Res 1.42 \
	tauNuc 343133 \
	poleEl 15 7 1
forces-output-coords Positions
initial-state NbTe2.$VAR
ion Cu   0.083195471234602   0.907345973801322   0.500218463454101 0
ion Cu   0.337232207565054   0.586906372839814   0.529586197271149 0
ion Cu   0.172999710657984   0.404649848625140   0.512726287681278 0
ion Cu   0.581167200575255   0.923015824760467   0.469710173137098 0
ion Cu   0.831175441009722   0.593456161757833   0.499877460863005 0
ion Cu   0.922153224255255   0.089983527100010   0.510665203178808 0
ion Cu   0.661799502832123   0.410770824449583   0.485185408471421 0
ion Se   0.206852958055083   0.143319115638979   0.487323467582203 0
ion Se   0.426991935424275   0.326498343091964   0.514702697308752 0
ion Se   0.329971883692805   0.857626365140477   0.502619251163345 0
ion Se   0.067976265809582   0.653459169804383   0.495148212225678 0
ion Se   0.690834577475144   0.149792535506456   0.481274733496394 0
ion Se   0.938250824400492   0.344517976879658   0.518763575599793 0
ion Se   0.805429691189093   0.851303904498016   0.523231775195157 0
ion Se   0.551598136238259   0.650289503921206   0.467827059334973 0
ion O   0.490159175988716   0.600351941131666   0.552713133819185 0
ion O   0.217308272597115   0.895167706017268   0.444133921907260 0
ion O   0.033699255236647   0.409497233032171   0.459331209391611 0
ion O   0.269014323667928   0.074633727756370   0.558409602760947 0
ion O   0.180474122294754   0.564073255818084   0.524107844021323 0
ion O   0.429664044799675   0.914269486654098   0.442545644803402 0
ion O   0.323999887746145   0.430059990752866   0.547949835038061 0
ion O   0.067948469134282   0.058945133152060   0.478663324781263 0
ion O   0.147616323208470   0.254512810974018   0.538915367951098 0
ion O   0.349829820632591   0.266189360191253   0.444982338068924 0
ion O   0.343061201320823   0.719854574926036   0.471259541755106 0
ion O   0.102726389183488   0.767835768068938   0.549206519723251 0
ion O   0.969827207434527   0.593209229261958   0.554930913860254 0
ion O   0.739466438221093   0.927679111499413   0.451610411116701 0
ion O   0.510151712829945   0.409976738288310   0.455371976442324 0
ion O   0.780688471209381   0.104385807130104   0.556172935012840 0
ion O   0.677184742417436   0.568205709994262   0.471921423742776 0
ion O   0.930920042084521   0.935061628088641   0.532047483244375 0
ion O   0.821566555170965   0.431179697423697   0.493290392742954 0
ion O   0.572125809506053   0.073650227068601   0.498676141985933 0
ion O   0.647160631100894   0.269231510334705   0.528039846649321 0
ion O   0.907606452775289   0.230629234898222   0.462265058245050 0
ion O   0.858134963829747   0.744874616546477   0.468548054685131 0
ion O   0.606218956194774   0.771318734175470   0.502662636287766 0
ion-species GBRV/$ID_pbe.uspp
ion-width Ecut
ionic-minimize  \
	dirUpdateScheme      L-BFGS \
	linminMethod         DirUpdateRecommended \
	nIterations          0 \
	history              15 \
	knormThreshold       0.0001 \
	energyDiffThreshold  1e-06 \
	nEnergyDiff          2 \
	alphaTstart          1 \
	alphaTmin            1e-10 \
	updateTestStepSize   yes \
	alphaTreduceFactor   0.1 \
	alphaTincreaseFactor 3 \
	nAlphaAdjustMax      3 \
	wolfeEnergy          0.0001 \
	wolfeGradient        0.9 \
	fdTest               no
kpoint   0.000000000000   0.000000000000   0.000000000000  1.00000000000000
kpoint-folding 3 3 1 
latt-move-scale 1 1 1
latt-scale 1 1 1 
lattice Triclinic 22.7432 23.0807 32.0547 90 90 90
lattice-minimize  \
	dirUpdateScheme      L-BFGS \
	linminMethod         DirUpdateRecommended \
	nIterations          0 \
	history              15 \
	knormThreshold       0 \
	energyDiffThreshold  1e-06 \
	nEnergyDiff          2 \
	alphaTstart          1 \
	alphaTmin            1e-10 \
	updateTestStepSize   yes \
	alphaTreduceFactor   0.1 \
	alphaTincreaseFactor 3 \
	nAlphaAdjustMax      3 \
	wolfeEnergy          0.0001 \
	wolfeGradient        0.9 \
	fdTest               no
lcao-params -1 1e-06 0.0073499
pcm-variant CANDLE
spintype no-spin
subspace-rotation-factor 1 yes
symmetries automatic
symmetry-threshold 0.0001
target-mu -0.171252 no




---------- Setting up symmetries ----------

Found 8 point-group symmetries of the bravais lattice
Found 1 space-group symmetries with basis
Applied RMS atom displacement 0 bohrs to make symmetries exact.

---------- Initializing the Grid ----------
R = 
[    22.7432          0          0  ]
[          0    23.0807          0  ]
[          0          0    32.0547  ]
unit cell volume = 16826.5
G =
[   0.276266          0          0  ]
[          0   0.272226          0  ]
[          0          0   0.196015  ]
Minimum fftbox size, Smin = [  104  104  148  ]
Chosen fftbox size, S = [  108  108  150  ]

---------- Initializing tighter grid for wavefunction operations ----------
R = 
[    22.7432          0          0  ]
[          0    23.0807          0  ]
[          0          0    32.0547  ]
unit cell volume = 16826.5
G =
[   0.276266          0          0  ]
[          0   0.272226          0  ]
[          0          0   0.196015  ]
Minimum fftbox size, Smin = [  92  96  132  ]
Chosen fftbox size, S = [  96  96  140  ]

---------- Exchange Correlation functional ----------
Initalized PBE GGA exchange.
Initalized PBE GGA correlation.

---------- Setting up pseudopotentials ----------
Width of ionic core gaussian charges (only for fluid interactions / plotting) set to 0.397384

Reading pseudopotential file '/home/guoxy/vasp/jdftx-1.5.0/build/pseudopotentials/GBRV/cu_pbe.uspp':
  Title: Cu.  Created by USPP 7.3.6 on 3-2-2014
  Reference state energy: -201.059491.  19 valence electrons in orbitals:
    |300>  occupation: 2  eigenvalue: -5.020764
    |310>  occupation: 6  eigenvalue: -3.445588
    |320>  occupation: 8  eigenvalue: -0.925168
    |400>  occupation: 2  eigenvalue: -0.567638
    |410>  occupation: 0  eigenvalue: -0.326154
  lMax: 2  lLocal: 3  QijEcut: 6
  6 projectors sampled on a log grid with 613 points:
    l: 0  eig: -5.020767  rCut: 1.4
    l: 0  eig: -0.567640  rCut: 1.4
    l: 1  eig: -3.445589  rCut: 1.55
    l: 1  eig: -0.326157  rCut: 1.55
    l: 2  eig: -0.925170  rCut: 1.5
    l: 2  eig: 1.500000  rCut: 1.5
  Partial core density with radius 0.8
  Transforming core density to a uniform radial grid of dG=0.02 with 1285 points.
  Transforming local potential to a uniform radial grid of dG=0.02 with 1285 points.
  Transforming nonlocal projectors to a uniform radial grid of dG=0.02 with 432 points.
  Transforming density augmentations to a uniform radial grid of dG=0.02 with 1285 points.
  Transforming atomic orbitals to a uniform radial grid of dG=0.02 with 432 points.
  Core radius for overlap checks: 1.55 bohrs.

Reading pseudopotential file '/home/guoxy/vasp/jdftx-1.5.0/build/pseudopotentials/GBRV/se_pbe.uspp':
  Title: Se.  Created by USPP 7.3.6 on 14-9-2013
  Reference state energy: -21.672887.  6 valence electrons in orbitals:
    |400>  occupation: 2  eigenvalue: -0.635284
    |410>  occupation: 4  eigenvalue: -0.239295
  lMax: 2  lLocal: 3  QijEcut: 5
  6 projectors sampled on a log grid with 625 points:
    l: 0  eig: -0.635278  rCut: 1.5
    l: 0  eig: 0.500000  rCut: 1.5
    l: 1  eig: -0.239295  rCut: 1.5
    l: 1  eig: 0.500000  rCut: 1.5
    l: 2  eig: 0.000000  rCut: 1.8
    l: 2  eig: 1.000000  rCut: 1.8
  Partial core density with radius 1.2
  Transforming core density to a uniform radial grid of dG=0.02 with 1285 points.
  Transforming local potential to a uniform radial grid of dG=0.02 with 1285 points.
  Transforming nonlocal projectors to a uniform radial grid of dG=0.02 with 432 points.
  Transforming density augmentations to a uniform radial grid of dG=0.02 with 1285 points.
  Transforming atomic orbitals to a uniform radial grid of dG=0.02 with 432 points.
  Core radius for overlap checks: 1.80 bohrs.

Reading pseudopotential file '/home/guoxy/vasp/jdftx-1.5.0/build/pseudopotentials/GBRV/o_pbe.uspp':
  Title: O.  Created by USPP 7.3.6 on 3-2-2014
  Reference state energy: -15.894388.  6 valence electrons in orbitals:
    |200>  occupation: 2  eigenvalue: -0.878823
    |210>  occupation: 4  eigenvalue: -0.332131
  lMax: 2  lLocal: 2  QijEcut: 6
  5 projectors sampled on a log grid with 511 points:
    l: 0  eig: -0.878823  rCut: 1.25
    l: 0  eig: 0.000000  rCut: 1.25
    l: 1  eig: -0.332132  rCut: 1.25
    l: 1  eig: 0.000000  rCut: 1.25
    l: 2  eig: 1.000000  rCut: 1.25
  Partial core density with radius 0.7
  Transforming core density to a uniform radial grid of dG=0.02 with 1285 points.
  Transforming local potential to a uniform radial grid of dG=0.02 with 1285 points.
  Transforming nonlocal projectors to a uniform radial grid of dG=0.02 with 432 points.
  Transforming density augmentations to a uniform radial grid of dG=0.02 with 1285 points.
  Transforming atomic orbitals to a uniform radial grid of dG=0.02 with 432 points.
  Core radius for overlap checks: 1.25 bohrs.

Initialized 3 species with 39 total atoms.

Folded 1 k-points by 3x3x1 to 9 k-points.

---------- Setting up k-points, bands, fillings ----------
Adding inversion symmetry to k-mesh for non-inversion-symmetric unit cell.
Reduced to 5 k-points under symmetry. 
Computing the number of bands and number of electrons
Reading initial fillings from file NbTe2.fillings.
nElectrons: 325.000000   nBands: 219   nStates: 5

----- Setting up reduced wavefunction bases (one per k-point) -----
average nbasis = 71865.667 , ideal nbasis = 71883.967

---------- Setting up coulomb interaction ----------
Fluid mode embedding: using embedded box, but periodic Coulomb kernel.
(Fluid response is responsible for (approximate) separation between periodic images.)
Setting up double-sized grid for truncated Coulomb potentials:
R = 
[    22.7432          0          0  ]
[          0    23.0807          0  ]
[          0          0    64.1093  ]
unit cell volume = 33652.9
G =
[   0.276266          0          0  ]
[          0   0.272226          0  ]
[          0          0  0.0980073  ]
Chosen fftbox size, S = [  108  108  300  ]
Integer grid location selected as the embedding center:
   Grid: [  0  0  75  ]
   Lattice: [  0  0  0.5  ]
   Cartesian: [  0  0  16.0273  ]
Constructing Wigner-Seitz cell: 6 faces (6 quadrilaterals, 0 hexagons)
Range-separation parameter for embedded mesh potentials due to point charges: 0.583207 bohrs.

Initializing van der Waals corrections
	NOTE: vdW corrections apply only for interactions with fluid.
	Cu:  C6:  187.33 Eh-a0^6  R0: 2.952 a0
	Se:  C6:  219.24 Eh-a0^6  R0: 3.347 a0
	 O:  C6:   12.14 Eh-a0^6  R0: 2.536 a0

---------- Setting up ewald sum ----------
Optimum gaussian width for ewald sums = 6.994236 bohr.
Real space sum over 567 unit cells with max indices [  4  4  3  ]
Reciprocal space sum over 5239 terms with max indices [  6  6  15  ]

---------- Allocating electronic variables ----------
Initializing wave functions:  reading from 'NbTe2.wfns'
----- createFluidSolver() ----- (Fluid-side solver setup)
   Initializing fluid molecule 'H2O'
     Initializing site 'O'
       Electron density: proportional to exp(-r/0.36935)*erfc((r-0.51523)/0.36823) with norm 6.826
       Charge density: gaussian nuclear width 0.478731 with net site charge 0.826
       Polarizability: cuspless exponential with width 0.32 and norm 3.73
       Hard sphere radius: 2.57003 bohrs
       Positions in reference frame:
         [ +0.000000 +0.000000 +0.000000 ]
     Initializing site 'H'
       Electron density: proportional to exp(-r/0.34641)*erfc((r-0)/0.390882) with norm 0.587
       Charge density: gaussian nuclear width 0.377945 with net site charge -0.413
       Polarizability: cuspless exponential with width 0.39 and norm 3.3
       Positions in reference frame:
         [ +0.000000 -1.441945 +1.122523 ]
         [ +0.000000 +1.441945 +1.122523 ]
     Net charge: 0   dipole magnitude: 0.927204
     Initializing spherical shell mfKernel with radius 2.61727 Bohr
     deltaS corrections:
       site 'O': -7.54299
       site 'H': -6.83917
   Initializing fluid molecule 'Na+'
     Initializing site 'Na'
       Electron density: proportional to exp(-r/0.19682)*erfc((r-0.71491)/0.41314) with norm 8.1383
       Charge density: gaussian nuclear width 0.365347 with net site charge -1
       Hard sphere radius: 1.86327 bohrs
       Positions in reference frame:
         [ +0.000000 +0.000000 +0.000000 ]
     Net charge: -1   dipole magnitude: 0
     Initializing gaussian mfKernel with width: 1.55004 Bohr
     deltaS corrections:
       site 'Na': -22.3555
   Initializing fluid molecule 'F-'
     Initializing site 'F'
       Electron density: proportional to exp(-r/0.38886)*erfc((r-0)/0.438782) with norm 8
       Charge density: gaussian nuclear width 0.374796 with net site charge 1
       Hard sphere radius: 2.39995 bohrs
       Positions in reference frame:
         [ +0.000000 +0.000000 +0.000000 ]
     Net charge: 1   dipole magnitude: 0
     Initializing gaussian mfKernel with width: 1.59012 Bohr
     deltaS corrections:
       site 'F': -9.04335

Correction to mu due to finite nuclear width = -0.00958208
   Cavity determined by nc: 0.00142 and sigma: 0.707107
   Nonlocal vdW cavity from gaussian model electron density with norm = 8 and sigma = 0.993594 bohr
   Charge asymmetry in cavity with sensitivity pCavity = 36.5 e-bohr/Eh
   Electrostatic cavity expanded by eta = 1.46 bohrs
   Weighted density cavitation model constrained by Nbulk: 0.0049383 bohr^-3, Pvap: 3.14029 kPa, Rvdw: 2.61727 bohr and sigmaBulk: 4.62e-05 Eh/bohr^2 at T: 298 K.
   Weighted density dispersion model using vdW pair potentials with single solvent site with sqrtC6eff: 0.77 SI.
Reading fluid state from 'NbTe2.fluidState'


---- Citations for features of the code used in this run ----

   Software package:
      R. Sundararaman, K. Letchworth-Weaver, K.A. Schwarz, D. Gunceler, Y. Ozhabes and T.A. Arias, 'JDFTx: software for joint density-functional theory', SoftwareX 6, 278 (2017)

   gga-PBE exchange-correlation functional:
      J.P. Perdew, K. Burke and M. Ernzerhof, Phys. Rev. Lett. 77, 3865 (1996)

   Pseudopotentials:
      KF Garrity, JW Bennett, KM Rabe and D Vanderbilt, Comput. Mater. Sci. 81, 446 (2014)

   Truncated Coulomb potentials:
      R. Sundararaman and T.A. Arias, Phys. Rev. B 87, 165122 (2013)

   Van der Waals correction pair-potentials:
      S. Grimme, J. Comput. Chem. 27, 1787 (2006)

   Charge-asymmetric nonlocally-determined local-electric (CANDLE) solvation model:
      R. Sundararaman and W.A. Goddard III, J. Chem. Phys. 142, 064107 (2015)

   Total energy minimization with Auxiliary Hamiltonian:
      C. Freysoldt, S. Boeck, and J. Neugebauer, Phys. Rev. B 79, 241103(R) (2009)

   Grand-canonical (fixed-potential) DFT:
      R. Sundararaman, W. A. Goddard III and T. A. Arias, J. Chem. Phys. 146, 114104 (2017)

This list may not be complete. Please suggest additional citations or
report any other bugs at https://github.com/shankar1729/jdftx/issues

Initialization completed successfully at t[s]:     18.54

Shifting auxilliary hamiltonian by 0.040494 to set nElectrons=325.000000
	Linear fluid (dielectric constant: 78.4, screening length: 5.74355 Bohr) occupying 0.815154 of unit cell:	Completed after 4 iterations at t[s]:     25.62

-------- Electronic minimization -----------
	Linear fluid (dielectric constant: 78.4, screening length: 5.74355 Bohr) occupying 0.815154 of unit cell:	Completed after 0 iterations at t[s]:     33.14
	FillingsUpdate:  mu: -0.171251800  nElectrons: 325.000000
ElecMinimize: Iter:   0  G: -1819.024269215727372  |grad|_K:  5.735e-05  alpha:  1.000e+00
	Linear fluid (dielectric constant: 78.4, screening length: 5.74355 Bohr) occupying 0.866961 of unit cell:	Completed after 29 iterations at t[s]:     57.66
	Linear fluid (dielectric constant: 78.4, screening length: 5.74355 Bohr) occupying 0.828067 of unit cell:	Completed after 25 iterations at t[s]:     72.82
ElecMinimize: 	Step increased G by 3.920646e-03, reducing alpha to 1.229217e-02.
	Linear fluid (dielectric constant: 78.4, screening length: 5.74355 Bohr) occupying 0.815549 of unit cell:	Completed after 20 iterations at t[s]:     93.63
	FillingsUpdate:  mu: -0.171251800  nElectrons: 325.158491
	SubspaceRotationAdjust: set factor to 0.507
ElecMinimize: Iter:   1  G: -1819.029963269761538  |grad|_K:  4.535e-05  alpha:  1.229e-02  linmin: -2.580e-02  t[s]:    102.24
	Linear fluid (dielectric constant: 78.4, screening length: 5.74355 Bohr) occupying 0.816375 of unit cell:	Completed after 14 iterations at t[s]:    112.85
	Linear fluid (dielectric constant: 78.4, screening length: 5.74355 Bohr) occupying 0.819092 of unit cell:	Completed after 18 iterations at t[s]:    126.10
	FillingsUpdate:  mu: -0.171251800  nElectrons: 325.828556
	SubspaceRotationAdjust: set factor to 0.497
ElecMinimize: Iter:   2  G: -1819.040406569091829  |grad|_K:  2.932e-05  alpha:  3.593e-02  linmin: -4.688e-05  t[s]:    134.94
	Linear fluid (dielectric constant: 78.4, screening length: 5.74355 Bohr) occupying 0.821563 of unit cell:	Completed after 16 iterations at t[s]:    146.57
	Linear fluid (dielectric constant: 78.4, screening length: 5.74355 Bohr) occupying 0.825294 of unit cell:	Completed after 18 iterations at t[s]:    160.14
	FillingsUpdate:  mu: -0.171251800  nElectrons: 326.448619
	SubspaceRotationAdjust: set factor to 0.425
ElecMinimize: Iter:   3  G: -1819.045941108536681  |grad|_K:  2.935e-05  alpha:  7.946e-02  linmin: -7.571e-05  t[s]:    168.58
	Linear fluid (dielectric constant: 78.4, screening length: 5.74355 Bohr) occupying 0.830511 of unit cell:	Completed after 18 iterations at t[s]:    179.26
	Linear fluid (dielectric constant: 78.4, screening length: 5.74355 Bohr) occupying 0.828877 of unit cell:	Completed after 14 iterations at t[s]:    189.43
	FillingsUpdate:  mu: -0.171251800  nElectrons: 326.745972
	SubspaceRotationAdjust: set factor to 0.555
ElecMinimize: Iter:   4  G: -1819.049743459011552  |grad|_K:  2.459e-05  alpha:  5.494e-02  linmin: -2.274e-07  t[s]:    193.70
	Linear fluid (dielectric constant: 78.4, screening length: 5.74355 Bohr) occupying 0.830319 of unit cell:	Completed after 12 iterations at t[s]:    198.88
	Linear fluid (dielectric constant: 78.4, screening length: 5.74355 Bohr) occupying 0.831787 of unit cell:	Completed after 12 iterations at t[s]:    204.75
	FillingsUpdate:  mu: -0.171251800  nElectrons: 326.995430
	SubspaceRotationAdjust: set factor to 0.561
ElecMinimize: Iter:   5  G: -1819.055132453180931  |grad|_K:  3.836e-05  alpha:  1.144e-01  linmin:  2.148e-05  t[s]:    209.06
	Linear fluid (dielectric constant: 78.4, screening length: 5.74355 Bohr) occupying 0.838086 of unit cell:	Completed after 18 iterations at t[s]:    214.95
	Linear fluid (dielectric constant: 78.4, screening length: 5.74355 Bohr) occupying 0.836876 of unit cell:	Completed after 12 iterations at t[s]:    220.56
	FillingsUpdate:  mu: -0.171251800  nElectrons: 327.457091
	SubspaceRotationAdjust: set factor to 0.586
ElecMinimize: Iter:   6  G: -1819.065276871520837  |grad|_K:  4.218e-05  alpha:  8.837e-02  linmin:  7.864e-06  t[s]:    224.87
	Linear fluid (dielectric constant: 78.4, screening length: 5.74355 Bohr) occupying 0.843693 of unit cell:	Completed after 20 iterations at t[s]:    231.71
	Linear fluid (dielectric constant: 78.4, screening length: 5.74355 Bohr) occupying 0.840243 of unit cell:	Completed after 18 iterations at t[s]:    239.37
	FillingsUpdate:  mu: -0.171251800  nElectrons: 327.781491
	SubspaceRotationAdjust: set factor to 0.76
ElecMinimize: Iter:   7  G: -1819.070766925093949  |grad|_K:  2.209e-05  alpha:  3.963e-02  linmin:  4.234e-06  t[s]:    243.85
	Linear fluid (dielectric constant: 78.4, screening length: 5.74355 Bohr) occupying 0.841500 of unit cell:	Completed after 16 iterations at t[s]:    249.28
	Linear fluid (dielectric constant: 78.4, screening length: 5.74355 Bohr) occupying 0.841434 of unit cell:	Completed after 4 iterations at t[s]:    253.75
	FillingsUpdate:  mu: -0.171251800  nElectrons: 327.900609
	SubspaceRotationAdjust: set factor to 0.794
ElecMinimize: Iter:   8  G: -1819.072204959843475  |grad|_K:  1.597e-05  alpha:  3.748e-02  linmin:  2.282e-06  t[s]:    257.91
	Linear fluid (dielectric constant: 78.4, screening length: 5.74355 Bohr) occupying 0.841641 of unit cell:	Completed after 9 iterations at t[s]:    262.25
	Linear fluid (dielectric constant: 78.4, screening length: 5.74355 Bohr) occupying 0.841863 of unit cell:	Completed after 10 iterations at t[s]:    267.48
	FillingsUpdate:  mu: -0.171251800  nElectrons: 327.958398
	SubspaceRotationAdjust: set factor to 0.954
ElecMinimize: Iter:   9  G: -1819.073786845829318  |grad|_K:  2.145e-05  alpha:  7.870e-02  linmin: -2.556e-06  t[s]:    272.14
	Linear fluid (dielectric constant: 78.4, screening length: 5.74355 Bohr) occupying 0.840447 of unit cell:	Completed after 19 iterations at t[s]:    278.86
	Linear fluid (dielectric constant: 78.4, screening length: 5.74355 Bohr) occupying 0.840803 of unit cell:	Completed after 14 iterations at t[s]:    285.34
	FillingsUpdate:  mu: -0.171251800  nElectrons: 327.890210
	SubspaceRotationAdjust: set factor to 1.16
ElecMinimize: Iter:  10  G: -1819.075958555433090  |grad|_K:  1.823e-05  alpha:  5.963e-02  linmin:  2.971e-06  t[s]:    289.52
	Linear fluid (dielectric constant: 78.4, screening length: 5.74355 Bohr) occupying 0.839381 of unit cell:	Completed after 18 iterations at t[s]:    295.46
	Linear fluid (dielectric constant: 78.4, screening length: 5.74355 Bohr) occupying 0.839885 of unit cell:	Completed after 14 iterations at t[s]:    301.30
	FillingsUpdate:  mu: -0.171251800  nElectrons: 327.822967
	SubspaceRotationAdjust: set factor to 1.09
ElecMinimize: Iter:  11  G: -1819.076979472648645  |grad|_K:  1.559e-05  alpha:  3.887e-02  linmin: -3.844e-07  t[s]:    305.52
	Linear fluid (dielectric constant: 78.4, screening length: 5.74355 Bohr) occupying 0.840006 of unit cell:	Completed after 10 iterations at t[s]:    310.99
	Linear fluid (dielectric constant: 78.4, screening length: 5.74355 Bohr) occupying 0.840078 of unit cell:	Completed after 10 iterations at t[s]:    317.01
	FillingsUpdate:  mu: -0.171251800  nElectrons: 327.858285
	SubspaceRotationAdjust: set factor to 0.883
ElecMinimize: Iter:  12  G: -1819.078172533558018  |grad|_K:  1.653e-05  alpha:  6.229e-02  linmin:  4.679e-06  t[s]:    321.35
	Linear fluid (dielectric constant: 78.4, screening length: 5.74355 Bohr) occupying 0.841604 of unit cell:	Completed after 18 iterations at t[s]:    326.75
	Linear fluid (dielectric constant: 78.4, screening length: 5.74355 Bohr) occupying 0.841029 of unit cell:	Completed after 14 iterations at t[s]:    332.54
	FillingsUpdate:  mu: -0.171251800  nElectrons: 327.957017
	SubspaceRotationAdjust: set factor to 1.28
ElecMinimize: Iter:  13  G: -1819.079000024462175  |grad|_K:  1.025e-05  alpha:  3.846e-02  linmin:  1.813e-06  t[s]:    336.62
	Linear fluid (dielectric constant: 78.4, screening length: 5.74355 Bohr) occupying 0.841269 of unit cell:	Completed after 12 iterations at t[s]:    341.28
	Linear fluid (dielectric constant: 78.4, screening length: 5.74355 Bohr) occupying 0.841330 of unit cell:	Completed after 8 iterations at t[s]:    346.07
	FillingsUpdate:  mu: -0.171251800  nElectrons: 327.991414
	SubspaceRotationAdjust: set factor to 1.09
ElecMinimize: Iter:  14  G: -1819.079400771725886  |grad|_K:  1.067e-05  alpha:  4.834e-02  linmin: -1.558e-05  t[s]:    350.17
	Linear fluid (dielectric constant: 78.4, screening length: 5.74355 Bohr) occupying 0.840717 of unit cell:	Completed after 14 iterations at t[s]:    355.35
	Linear fluid (dielectric constant: 78.4, screening length: 5.74355 Bohr) occupying 0.840498 of unit cell:	Completed after 10 iterations at t[s]:    360.46
	FillingsUpdate:  mu: -0.171251800  nElectrons: 327.925497
	SubspaceRotationAdjust: set factor to 0.857
ElecMinimize: Iter:  15  G: -1819.079988841155227  |grad|_K:  1.059e-05  alpha:  6.541e-02  linmin:  1.864e-05  t[s]:    364.65
	Linear fluid (dielectric constant: 78.4, screening length: 5.74355 Bohr) occupying 0.839216 of unit cell:	Completed after 17 iterations at t[s]:    370.58
	Linear fluid (dielectric constant: 78.4, screening length: 5.74355 Bohr) occupying 0.839719 of unit cell:	Completed after 14 iterations at t[s]:    376.78
	FillingsUpdate:  mu: -0.171251800  nElectrons: 327.860874
	SubspaceRotationAdjust: set factor to 1.21
ElecMinimize: Iter:  16  G: -1819.080339733020992  |grad|_K:  6.926e-06  alpha:  4.001e-02  linmin: -1.340e-06  t[s]:    380.90
	Linear fluid (dielectric constant: 78.4, screening length: 5.74355 Bohr) occupying 0.839500 of unit cell:	Completed after 11 iterations at t[s]:    386.41
	Linear fluid (dielectric constant: 78.4, screening length: 5.74355 Bohr) occupying 0.839368 of unit cell:	Completed after 9 iterations at t[s]:    392.67
	FillingsUpdate:  mu: -0.171251800  nElectrons: 327.831691
	SubspaceRotationAdjust: set factor to 1.21
ElecMinimize: Iter:  17  G: -1819.080581849248119  |grad|_K:  7.838e-06  alpha:  6.391e-02  linmin: -1.332e-05  t[s]:    397.04
	Linear fluid (dielectric constant: 78.4, screening length: 5.74355 Bohr) occupying 0.839103 of unit cell:	Completed after 11 iterations at t[s]:    402.18
	Linear fluid (dielectric constant: 78.4, screening length: 5.74355 Bohr) occupying 0.839124 of unit cell:	Completed after 3 iterations at t[s]:    406.56
	FillingsUpdate:  mu: -0.171251800  nElectrons: 327.810878
	SubspaceRotationAdjust: set factor to 1.38
ElecMinimize: Iter:  18  G: -1819.080868517796034  |grad|_K:  6.429e-06  alpha:  5.902e-02  linmin:  6.096e-06  t[s]:    410.79
	Linear fluid (dielectric constant: 78.4, screening length: 5.74355 Bohr) occupying 0.838886 of unit cell:	Completed after 10 iterations at t[s]:    415.48
	Linear fluid (dielectric constant: 78.4, screening length: 5.74355 Bohr) occupying 0.838941 of unit cell:	Completed after 5 iterations at t[s]:    420.51
	FillingsUpdate:  mu: -0.171251800  nElectrons: 327.793994
	SubspaceRotationAdjust: set factor to 1.47
ElecMinimize: Iter:  19  G: -1819.081016432061915  |grad|_K:  5.910e-06  alpha:  4.545e-02  linmin:  8.503e-06  t[s]:    425.20
	Linear fluid (dielectric constant: 78.4, screening length: 5.74355 Bohr) occupying 0.838914 of unit cell:	Completed after 10 iterations at t[s]:    430.55
	Linear fluid (dielectric constant: 78.4, screening length: 5.74355 Bohr) occupying 0.838899 of unit cell:	Completed after 8 iterations at t[s]:    436.32
	FillingsUpdate:  mu: -0.171251800  nElectrons: 327.786319
	SubspaceRotationAdjust: set factor to 1.79
ElecMinimize: Iter:  20  G: -1819.081214501402883  |grad|_K:  6.225e-06  alpha:  7.208e-02  linmin: -2.099e-06  t[s]:    440.47
	Linear fluid (dielectric constant: 78.4, screening length: 5.74355 Bohr) occupying 0.839228 of unit cell:	Completed after 14 iterations at t[s]:    446.12
	Linear fluid (dielectric constant: 78.4, screening length: 5.74355 Bohr) occupying 0.839060 of unit cell:	Completed after 12 iterations at t[s]:    452.11
	FillingsUpdate:  mu: -0.171251800  nElectrons: 327.796769
	SubspaceRotationAdjust: set factor to 1.66
ElecMinimize: Iter:  21  G: -1819.081321756761099  |grad|_K:  4.240e-06  alpha:  3.519e-02  linmin:  2.443e-06  t[s]:    456.32
	Linear fluid (dielectric constant: 78.4, screening length: 5.74355 Bohr) occupying 0.839043 of unit cell:	Completed after 6 iterations at t[s]:    460.66
	Linear fluid (dielectric constant: 78.4, screening length: 5.74355 Bohr) occupying 0.839028 of unit cell:	Completed after 6 iterations at t[s]:    465.81
	FillingsUpdate:  mu: -0.171251800  nElectrons: 327.789510
	SubspaceRotationAdjust: set factor to 1.5
ElecMinimize: Iter:  22  G: -1819.081414751581178  |grad|_K:  5.017e-06  alpha:  6.589e-02  linmin:  1.160e-05  t[s]:    470.42
	Linear fluid (dielectric constant: 78.4, screening length: 5.74355 Bohr) occupying 0.838704 of unit cell:	Completed after 11 iterations at t[s]:    475.95
	Linear fluid (dielectric constant: 78.4, screening length: 5.74355 Bohr) occupying 0.838836 of unit cell:	Completed after 9 iterations at t[s]:    482.16
	FillingsUpdate:  mu: -0.171251800  nElectrons: 327.769069
	SubspaceRotationAdjust: set factor to 1.67
ElecMinimize: Iter:  23  G: -1819.081492027228705  |grad|_K:  3.182e-06  alpha:  3.909e-02  linmin:  2.412e-06  t[s]:    486.43
	Linear fluid (dielectric constant: 78.4, screening length: 5.74355 Bohr) occupying 0.838754 of unit cell:	Completed after 8 iterations at t[s]:    490.67
	Linear fluid (dielectric constant: 78.4, screening length: 5.74355 Bohr) occupying 0.838708 of unit cell:	Completed after 5 iterations at t[s]:    495.42
	FillingsUpdate:  mu: -0.171251800  nElectrons: 327.755205
	SubspaceRotationAdjust: set factor to 1.23
ElecMinimize: Iter:  24  G: -1819.081540221804062  |grad|_K:  3.850e-06  alpha:  6.045e-02  linmin: -4.577e-06  t[s]:    499.54
	Linear fluid (dielectric constant: 78.4, screening length: 5.74355 Bohr) occupying 0.838527 of unit cell:	Completed after 10 iterations at t[s]:    504.48
	Linear fluid (dielectric constant: 78.4, screening length: 5.74355 Bohr) occupying 0.838569 of unit cell:	Completed after 4 iterations at t[s]:    508.97
	FillingsUpdate:  mu: -0.171251800  nElectrons: 327.739803
	SubspaceRotationAdjust: set factor to 1.83
ElecMinimize: Iter:  25  G: -1819.081594585014045  |grad|_K:  2.471e-06  alpha:  4.639e-02  linmin:  1.137e-05  t[s]:    513.21
	Linear fluid (dielectric constant: 78.4, screening length: 5.74355 Bohr) occupying 0.838512 of unit cell:	Completed after 8 iterations at t[s]:    517.88
	Linear fluid (dielectric constant: 78.4, screening length: 5.74355 Bohr) occupying 0.838492 of unit cell:	Completed after 5 iterations at t[s]:    523.52
	FillingsUpdate:  mu: -0.171251800  nElectrons: 327.731241
	SubspaceRotationAdjust: set factor to 1.64
ElecMinimize: Iter:  26  G: -1819.081624503512330  |grad|_K:  2.944e-06  alpha:  6.275e-02  linmin:  2.210e-05  t[s]:    528.30
	Linear fluid (dielectric constant: 78.4, screening length: 5.74355 Bohr) occupying 0.838557 of unit cell:	Completed after 8 iterations at t[s]:    532.70
	Linear fluid (dielectric constant: 78.4, screening length: 5.74355 Bohr) occupying 0.838547 of unit cell:	Completed after 3 iterations at t[s]:    536.91
	FillingsUpdate:  mu: -0.171251800  nElectrons: 327.734063
	SubspaceRotationAdjust: set factor to 2.19
ElecMinimize: Iter:  27  G: -1819.081660190985986  |grad|_K:  1.995e-06  alpha:  5.275e-02  linmin:  3.803e-06  t[s]:    541.00
	Linear fluid (dielectric constant: 78.4, screening length: 5.74355 Bohr) occupying 0.838644 of unit cell:	Completed after 8 iterations at t[s]:    545.67
	Linear fluid (dielectric constant: 78.4, screening length: 5.74355 Bohr) occupying 0.838691 of unit cell:	Completed after 5 iterations at t[s]:    550.50
	FillingsUpdate:  mu: -0.171251800  nElectrons: 327.745576
	SubspaceRotationAdjust: set factor to 1.73
ElecMinimize: Iter:  28  G: -1819.081684811088735  |grad|_K:  2.455e-06  alpha:  7.872e-02  linmin: -2.542e-06  t[s]:    554.62
	Linear fluid (dielectric constant: 78.4, screening length: 5.74355 Bohr) occupying 0.838674 of unit cell:	Completed after 9 iterations at t[s]:    559.09
	Linear fluid (dielectric constant: 78.4, screening length: 5.74355 Bohr) occupying 0.838684 of unit cell:	Completed after 7 iterations at t[s]:    564.91
	FillingsUpdate:  mu: -0.171251800  nElectrons: 327.744746
	SubspaceRotationAdjust: set factor to 1.89
ElecMinimize: Iter:  29  G: -1819.081700241941917  |grad|_K:  1.417e-06  alpha:  3.259e-02  linmin:  5.746e-06  t[s]:    569.79
	Linear fluid (dielectric constant: 78.4, screening length: 5.74355 Bohr) occupying 0.838666 of unit cell:	Completed after 3 iterations at t[s]:    573.97
	Linear fluid (dielectric constant: 78.4, screening length: 5.74355 Bohr) occupying 0.838637 of unit cell:	Completed after 3 iterations at t[s]:    578.97
	FillingsUpdate:  mu: -0.171251800  nElectrons: 327.741042
	SubspaceRotationAdjust: set factor to 2.03
ElecMinimize: Iter:  30  G: -1819.081713400122680  |grad|_K:  1.508e-06  alpha:  8.310e-02  linmin: -7.832e-06  t[s]:    583.01
	Linear fluid (dielectric constant: 78.4, screening length: 5.74355 Bohr) occupying 0.838729 of unit cell:	Completed after 9 iterations at t[s]:    587.69
	Linear fluid (dielectric constant: 78.4, screening length: 5.74355 Bohr) occupying 0.838685 of unit cell:	Completed after 5 iterations at t[s]:    592.27
	FillingsUpdate:  mu: -0.171251800  nElectrons: 327.745572
	SubspaceRotationAdjust: set factor to 1.83
ElecMinimize: Iter:  31  G: -1819.081721200416041  |grad|_K:  1.368e-06  alpha:  4.385e-02  linmin:  1.286e-05  t[s]:    596.56
	Linear fluid (dielectric constant: 78.4, screening length: 5.74355 Bohr) occupying 0.838693 of unit cell:	Completed after 3 iterations at t[s]:    599.85
	Linear fluid (dielectric constant: 78.4, screening length: 5.74355 Bohr) occupying 0.838698 of unit cell:	Completed after 3 iterations at t[s]:    604.61
	FillingsUpdate:  mu: -0.171251800  nElectrons: 327.747347
	SubspaceRotationAdjust: set factor to 2.1
ElecMinimize: Iter:  32  G: -1819.081732127892792  |grad|_K:  1.453e-06  alpha:  7.378e-02  linmin: -2.402e-05  t[s]:    608.73
	Linear fluid (dielectric constant: 78.4, screening length: 5.74355 Bohr) occupying 0.838646 of unit cell:	Completed after 9 iterations at t[s]:    613.89
	Linear fluid (dielectric constant: 78.4, screening length: 5.74355 Bohr) occupying 0.838668 of unit cell:	Completed after 4 iterations at t[s]:    619.06
	FillingsUpdate:  mu: -0.171251800  nElectrons: 327.745204
	SubspaceRotationAdjust: set factor to 1.86
ElecMinimize: Iter:  33  G: -1819.081739447275368  |grad|_K:  1.161e-06  alpha:  4.337e-02  linmin:  1.396e-05  t[s]:    623.71
	Linear fluid (dielectric constant: 78.4, screening length: 5.74355 Bohr) occupying 0.838739 of unit cell:	Completed after 5 iterations at t[s]:    627.67
	Linear fluid (dielectric constant: 78.4, screening length: 5.74355 Bohr) occupying 0.838758 of unit cell:	Completed after 3 iterations at t[s]:    632.25
	FillingsUpdate:  mu: -0.171251800  nElectrons: 327.753338
	SubspaceRotationAdjust: set factor to 1.99
ElecMinimize: Iter:  34  G: -1819.081745261669994  |grad|_K:  9.443e-07  alpha:  5.558e-02  linmin:  6.623e-06  t[s]:    636.34
	Linear fluid (dielectric constant: 78.4, screening length: 5.74355 Bohr) occupying 0.838827 of unit cell:	Completed after 8 iterations at t[s]:    640.93
	Linear fluid (dielectric constant: 78.4, screening length: 5.74355 Bohr) occupying 0.838805 of unit cell:	Completed after 3 iterations at t[s]:    645.39
	FillingsUpdate:  mu: -0.171251800  nElectrons: 327.757419
	SubspaceRotationAdjust: set factor to 1.64
ElecMinimize: Iter:  35  G: -1819.081747827425488  |grad|_K:  7.070e-07  alpha:  3.736e-02  linmin:  3.129e-06  t[s]:    649.56
	Linear fluid (dielectric constant: 78.4, screening length: 5.74355 Bohr) occupying 0.838818 of unit cell:	Completed after 2 iterations at t[s]:    653.09
	Linear fluid (dielectric constant: 78.4, screening length: 5.74355 Bohr) occupying 0.838828 of unit cell:	Completed after 2 iterations at t[s]:    657.35
	FillingsUpdate:  mu: -0.171251800  nElectrons: 327.759466
	SubspaceRotationAdjust: set factor to 1.82
ElecMinimize: Iter:  36  G: -1819.081750343067597  |grad|_K:  6.437e-07  alpha:  6.429e-02  linmin: -3.307e-05  t[s]:    661.70
	Linear fluid (dielectric constant: 78.4, screening length: 5.74355 Bohr) occupying 0.838863 of unit cell:	Completed after 4 iterations at t[s]:    665.94
	Linear fluid (dielectric constant: 78.4, screening length: 5.74355 Bohr) occupying 0.838860 of unit cell:	Completed after 0 iterations at t[s]:    670.60
	FillingsUpdate:  mu: -0.171251800  nElectrons: 327.762261
	SubspaceRotationAdjust: set factor to 1.52
ElecMinimize: Iter:  37  G: -1819.081752291975590  |grad|_K:  7.070e-07  alpha:  5.848e-02  linmin:  9.899e-05  t[s]:    674.88
	Linear fluid (dielectric constant: 78.4, screening length: 5.74355 Bohr) occupying 0.838842 of unit cell:	Completed after 3 iterations at t[s]:    678.57
	Linear fluid (dielectric constant: 78.4, screening length: 5.74355 Bohr) occupying 0.838842 of unit cell:	Completed after 0 iterations at t[s]:    682.49
	FillingsUpdate:  mu: -0.171251800  nElectrons: 327.760774
	SubspaceRotationAdjust: set factor to 1.75
ElecMinimize: Iter:  38  G: -1819.081754403403920  |grad|_K:  5.658e-07  alpha:  5.636e-02  linmin: -1.500e-05  t[s]:    686.67
	Linear fluid (dielectric constant: 78.4, screening length: 5.74355 Bohr) occupying 0.838811 of unit cell:	Completed after 3 iterations at t[s]:    690.39
	Linear fluid (dielectric constant: 78.4, screening length: 5.74355 Bohr) occupying 0.838802 of unit cell:	Completed after 0 iterations at t[s]:    694.43
	FillingsUpdate:  mu: -0.171251800  nElectrons: 327.757268
	SubspaceRotationAdjust: set factor to 1.72
ElecMinimize: Iter:  39  G: -1819.081756326112782  |grad|_K:  4.824e-07  alpha:  7.398e-02  linmin: -2.739e-04  t[s]:    698.52
	Linear fluid (dielectric constant: 78.4, screening length: 5.74355 Bohr) occupying 0.838741 of unit cell:	Completed after 4 iterations at t[s]:    702.40
	Linear fluid (dielectric constant: 78.4, screening length: 5.74355 Bohr) occupying 0.838753 of unit cell:	Completed after 2 iterations at t[s]:    706.78
	FillingsUpdate:  mu: -0.171251800  nElectrons: 327.753001
	SubspaceRotationAdjust: set factor to 1.69
ElecMinimize: Iter:  40  G: -1819.081757463283566  |grad|_K:  4.456e-07  alpha:  6.000e-02  linmin: -1.200e-04  t[s]:    711.16
	Linear fluid (dielectric constant: 78.4, screening length: 5.74355 Bohr) occupying 0.838731 of unit cell:	Completed after 3 iterations at t[s]:    715.18
	Linear fluid (dielectric constant: 78.4, screening length: 5.74355 Bohr) occupying 0.838737 of unit cell:	Completed after 0 iterations at t[s]:    719.59
	FillingsUpdate:  mu: -0.171251800  nElectrons: 327.751600
	SubspaceRotationAdjust: set factor to 1.5
ElecMinimize: Iter:  41  G: -1819.081758242821479  |grad|_K:  4.957e-07  alpha:  4.333e-02  linmin:  3.891e-04  t[s]:    723.95
	Linear fluid (dielectric constant: 78.4, screening length: 5.74355 Bohr) occupying 0.838740 of unit cell:	Completed after 3 iterations at t[s]:    727.95
	Linear fluid (dielectric constant: 78.4, screening length: 5.74355 Bohr) occupying 0.838739 of unit cell:	Completed after 0 iterations at t[s]:    731.88
	FillingsUpdate:  mu: -0.171251800  nElectrons: 327.751653
	SubspaceRotationAdjust: set factor to 1.58
ElecMinimize: Iter:  42  G: -1819.081758669217834  |grad|_K:  3.504e-07  alpha:  3.007e-02  linmin:  1.049e-04  t[s]:    736.11
	Linear fluid (dielectric constant: 78.4, screening length: 5.74355 Bohr) occupying 0.838735 of unit cell:	Completed after 0 iterations at t[s]:    739.26
ElecMinimize: 	Predicted alpha/alphaT>3.000000, increasing alphaT to 9.021597e-02.
	Linear fluid (dielectric constant: 78.4, screening length: 5.74355 Bohr) occupying 0.838727 of unit cell:	Completed after 3 iterations at t[s]:    743.59
	Linear fluid (dielectric constant: 78.4, screening length: 5.74355 Bohr) occupying 0.838731 of unit cell:	Completed after 0 iterations at t[s]:    747.27
	FillingsUpdate:  mu: -0.171251800  nElectrons: 327.750776
	SubspaceRotationAdjust: set factor to 1.22
ElecMinimize: Iter:  43  G: -1819.081759261026264  |grad|_K:  4.111e-07  alpha:  5.980e-02  linmin:  3.378e-04  t[s]:    751.36
	Linear fluid (dielectric constant: 78.4, screening length: 5.74355 Bohr) occupying 0.838771 of unit cell:	Completed after 4 iterations at t[s]:    755.63
	Linear fluid (dielectric constant: 78.4, screening length: 5.74355 Bohr) occupying 0.838753 of unit cell:	Completed after 2 iterations at t[s]:    760.52
	FillingsUpdate:  mu: -0.171251800  nElectrons: 327.752531
	SubspaceRotationAdjust: set factor to 1.16
ElecMinimize: Iter:  44  G: -1819.081759529479086  |grad|_K:  2.535e-07  alpha:  3.279e-02  linmin:  3.198e-05  t[s]:    765.31
	Linear fluid (dielectric constant: 78.4, screening length: 5.74355 Bohr) occupying 0.838757 of unit cell:	Completed after 0 iterations at t[s]:    768.92
ElecMinimize: 	Predicted alpha/alphaT>3.000000, increasing alphaT to 9.837181e-02.
	Linear fluid (dielectric constant: 78.4, screening length: 5.74355 Bohr) occupying 0.838766 of unit cell:	Completed after 1 iterations at t[s]:    773.04
	Linear fluid (dielectric constant: 78.4, screening length: 5.74355 Bohr) occupying 0.838768 of unit cell:	Completed after 0 iterations at t[s]:    776.91
	FillingsUpdate:  mu: -0.171251800  nElectrons: 327.753591
	SubspaceRotationAdjust: set factor to 1.57
ElecMinimize: Iter:  45  G: -1819.081760110664618  |grad|_K:  1.988e-07  alpha:  1.154e-01  linmin: -1.186e-04  t[s]:    781.06
	Linear fluid (dielectric constant: 78.4, screening length: 5.74355 Bohr) occupying 0.838762 of unit cell:	Completed after 2 iterations at t[s]:    784.53
	Linear fluid (dielectric constant: 78.4, screening length: 5.74355 Bohr) occupying 0.838764 of unit cell:	Completed after 0 iterations at t[s]:    788.49
	FillingsUpdate:  mu: -0.171251800  nElectrons: 327.753166
	SubspaceRotationAdjust: set factor to 1.5
ElecMinimize: Iter:  46  G: -1819.081760329965618  |grad|_K:  2.458e-07  alpha:  7.709e-02  linmin: -4.987e-07  t[s]:    792.57
	Linear fluid (dielectric constant: 78.4, screening length: 5.74355 Bohr) occupying 0.838779 of unit cell:	Completed after 3 iterations at t[s]:    796.27
	Linear fluid (dielectric constant: 78.4, screening length: 5.74355 Bohr) occupying 0.838771 of unit cell:	Completed after 1 iterations at t[s]:    800.81
	FillingsUpdate:  mu: -0.171251800  nElectrons: 327.753716
	SubspaceRotationAdjust: set factor to 1.08
ElecMinimize: Iter:  47  G: -1819.081760497148707  |grad|_K:  2.122e-07  alpha:  3.621e-02  linmin:  1.755e-04  t[s]:    805.41
	Linear fluid (dielectric constant: 78.4, screening length: 5.74355 Bohr) occupying 0.838764 of unit cell:	Completed after 0 iterations at t[s]:    809.03
	Linear fluid (dielectric constant: 78.4, screening length: 5.74355 Bohr) occupying 0.838753 of unit cell:	Completed after 2 iterations at t[s]:    813.99
	FillingsUpdate:  mu: -0.171251800  nElectrons: 327.752140
	SubspaceRotationAdjust: set factor to 0.887
ElecMinimize: Iter:  48  G: -1819.081760549326418  |grad|_K:  1.744e-07  alpha:  9.642e-02  linmin:  4.906e-04  t[s]:    818.10
	Linear fluid (dielectric constant: 78.4, screening length: 5.74355 Bohr) occupying 0.838750 of unit cell:	Completed after 0 iterations at t[s]:    821.44
	Linear fluid (dielectric constant: 78.4, screening length: 5.74355 Bohr) occupying 0.838751 of unit cell:	Completed after 0 iterations at t[s]:    825.36
	FillingsUpdate:  mu: -0.171251800  nElectrons: 327.751925
	SubspaceRotationAdjust: set factor to 1.2
ElecMinimize: Iter:  49  G: -1819.081760616172460  |grad|_K:  1.626e-07  alpha:  7.318e-02  linmin: -2.356e-05  t[s]:    829.51
	Linear fluid (dielectric constant: 78.4, screening length: 5.74355 Bohr) occupying 0.838754 of unit cell:	Completed after 2 iterations at t[s]:    832.95
	Linear fluid (dielectric constant: 78.4, screening length: 5.74355 Bohr) occupying 0.838753 of unit cell:	Completed after 0 iterations at t[s]:    836.82
	FillingsUpdate:  mu: -0.171251800  nElectrons: 327.752086
	SubspaceRotationAdjust: set factor to 0.969
ElecMinimize: Iter:  50  G: -1819.081760704610815  |grad|_K:  1.984e-07  alpha:  4.864e-02  linmin:  1.302e-05  t[s]:    840.94
	Linear fluid (dielectric constant: 78.4, screening length: 5.74355 Bohr) occupying 0.838761 of unit cell:	Completed after 0 iterations at t[s]:    844.59
	Linear fluid (dielectric constant: 78.4, screening length: 5.74355 Bohr) occupying 0.838762 of unit cell:	Completed after 0 iterations at t[s]:    848.96
	FillingsUpdate:  mu: -0.171251800  nElectrons: 327.752887
	SubspaceRotationAdjust: set factor to 0.788
ElecMinimize: Iter:  51  G: -1819.081760887192559  |grad|_K:  1.737e-07  alpha:  5.794e-02  linmin: -8.628e-05  t[s]:    853.68
	Linear fluid (dielectric constant: 78.4, screening length: 5.74355 Bohr) occupying 0.838777 of unit cell:	Completed after 3 iterations at t[s]:    857.40
	Linear fluid (dielectric constant: 78.4, screening length: 5.74355 Bohr) occupying 0.838766 of unit cell:	Completed after 1 iterations at t[s]:    861.67
ElecMinimize: 	Step increased G by 3.104060e-08, reducing alpha to 1.582128e-03.
	Linear fluid (dielectric constant: 78.4, screening length: 5.74355 Bohr) occupying 0.838762 of unit cell:	Completed after 0 iterations at t[s]:    868.69
	FillingsUpdate:  mu: -0.171251800  nElectrons: 327.752922
	SubspaceRotationAdjust: set factor to 0.581
ElecMinimize: Iter:  52  G: -1819.081760896016021  |grad|_K:  1.632e-07  alpha:  1.582e-03  linmin:  2.393e-04  t[s]:    872.86
	Linear fluid (dielectric constant: 78.4, screening length: 5.74355 Bohr) occupying 0.838763 of unit cell:	Completed after 0 iterations at t[s]:    876.06
ElecMinimize: 	Predicted alpha/alphaT>3.000000, increasing alphaT to 4.746384e-03.
	Linear fluid (dielectric constant: 78.4, screening length: 5.74355 Bohr) occupying 0.838763 of unit cell:	Completed after 0 iterations at t[s]:    880.36
ElecMinimize: 	Predicted alpha/alphaT>3.000000, increasing alphaT to 1.423915e-02.
	Linear fluid (dielectric constant: 78.4, screening length: 5.74355 Bohr) occupying 0.838764 of unit cell:	Completed after 0 iterations at t[s]:    884.73
ElecMinimize: 	Predicted alpha/alphaT>3.000000, increasing alphaT to 4.271746e-02.
	Linear fluid (dielectric constant: 78.4, screening length: 5.74355 Bohr) occupying 0.838768 of unit cell:	Completed after 0 iterations at t[s]:    889.24
	FillingsUpdate:  mu: -0.171251800  nElectrons: 327.753439
	SubspaceRotationAdjust: set factor to 0.817
ElecMinimize: Iter:  53  G: -1819.081760940970526  |grad|_K:  1.431e-07  alpha:  4.595e-02  linmin: -3.989e-07  t[s]:    893.96
	Linear fluid (dielectric constant: 78.4, screening length: 5.74355 Bohr) occupying 0.838770 of unit cell:	Completed after 2 iterations at t[s]:    897.39
	Linear fluid (dielectric constant: 78.4, screening length: 5.74355 Bohr) occupying 0.838769 of unit cell:	Completed after 0 iterations at t[s]:    901.14
ElecMinimize: 	Step increased G by 1.142894e-08, reducing alpha to 1.824076e-03.
	Linear fluid (dielectric constant: 78.4, screening length: 5.74355 Bohr) occupying 0.838768 of unit cell:	Completed after 0 iterations at t[s]:    907.60
ElecMinimize: 	Step increased G by 8.724328e-09, reducing alpha to 1.824076e-04.
	Linear fluid (dielectric constant: 78.4, screening length: 5.74355 Bohr) occupying 0.838768 of unit cell:	Completed after 0 iterations at t[s]:    914.11
ElecMinimize: 	Step increased G by 8.994220e-09, reducing alpha to 1.824076e-05.
ElecMinimize: 	Step failed to reduce G after 3 attempts. Quitting step.
ElecMinimize: 	Undoing step.
	Linear fluid (dielectric constant: 78.4, screening length: 5.74355 Bohr) occupying 0.838768 of unit cell:	Completed after 0 iterations at t[s]:    920.72
ElecMinimize: 	Step failed: resetting search direction.
	FillingsUpdate:  mu: -0.171251800  nElectrons: 327.753440
	SubspaceRotationAdjust: set factor to 0.8
ElecMinimize: Iter:  54  G: -1819.081760931973804  |grad|_K:  1.180e-07  alpha:  1.824e-05
	Linear fluid (dielectric constant: 78.4, screening length: 5.74355 Bohr) occupying 0.838765 of unit cell:	Completed after 1 iterations at t[s]:    928.14
	Linear fluid (dielectric constant: 78.4, screening length: 5.74355 Bohr) occupying 0.838765 of unit cell:	Completed after 0 iterations at t[s]:    932.10
	FillingsUpdate:  mu: -0.171251800  nElectrons: 327.753210
	SubspaceRotationAdjust: set factor to 0.977
ElecMinimize: Iter:  55  G: -1819.081760974063855  |grad|_K:  8.795e-08  alpha:  4.281e-02  linmin: -2.219e-03  t[s]:    936.30
	Linear fluid (dielectric constant: 78.4, screening length: 5.74355 Bohr) occupying 0.838763 of unit cell:	Completed after 0 iterations at t[s]:    939.35
ElecMinimize: 	Predicted alpha/alphaT>3.000000, increasing alphaT to 1.284184e-01.
	Linear fluid (dielectric constant: 78.4, screening length: 5.74355 Bohr) occupying 0.838759 of unit cell:	Completed after 2 iterations at t[s]:    943.51
	Linear fluid (dielectric constant: 78.4, screening length: 5.74355 Bohr) occupying 0.838761 of unit cell:	Completed after 0 iterations at t[s]:    947.47
	FillingsUpdate:  mu: -0.171251800  nElectrons: 327.752883
	SubspaceRotationAdjust: set factor to 0.772
ElecMinimize: Iter:  56  G: -1819.081761045588109  |grad|_K:  1.518e-07  alpha:  8.382e-02  linmin:  9.371e-06  t[s]:    951.61
	Linear fluid (dielectric constant: 78.4, screening length: 5.74355 Bohr) occupying 0.838749 of unit cell:	Completed after 1 iterations at t[s]:    955.59
	Linear fluid (dielectric constant: 78.4, screening length: 5.74355 Bohr) occupying 0.838757 of unit cell:	Completed after 0 iterations at t[s]:    960.25
	FillingsUpdate:  mu: -0.171251800  nElectrons: 327.752587
	SubspaceRotationAdjust: set factor to 0.874
ElecMinimize: Iter:  57  G: -1819.081761149004478  |grad|_K:  1.183e-07  alpha:  2.764e-02  linmin:  3.733e-04  t[s]:    964.84
	Linear fluid (dielectric constant: 78.4, screening length: 5.74355 Bohr) occupying 0.838758 of unit cell:	Completed after 0 iterations at t[s]:    968.56
	Linear fluid (dielectric constant: 78.4, screening length: 5.74355 Bohr) occupying 0.838758 of unit cell:	Completed after 0 iterations at t[s]:    972.42
	FillingsUpdate:  mu: -0.171251800  nElectrons: 327.752718
	SubspaceRotationAdjust: set factor to 1.14
ElecMinimize: Iter:  58  G: -1819.081761168890580  |grad|_K:  1.293e-07  alpha:  4.012e-02  linmin: -3.377e-07  t[s]:    976.65
	Linear fluid (dielectric constant: 78.4, screening length: 5.74355 Bohr) occupying 0.838765 of unit cell:	Completed after 1 iterations at t[s]:    979.96
	Linear fluid (dielectric constant: 78.4, screening length: 5.74355 Bohr) occupying 0.838761 of unit cell:	Completed after 0 iterations at t[s]:    983.71
ElecMinimize: 	Step increased G by 1.846706e-08, reducing alpha to 1.779427e-03.
	Linear fluid (dielectric constant: 78.4, screening length: 5.74355 Bohr) occupying 0.838759 of unit cell:	Completed after 0 iterations at t[s]:    990.33
ElecMinimize: 	Step increased G by 3.039713e-08, reducing alpha to 1.779427e-04.
	Linear fluid (dielectric constant: 78.4, screening length: 5.74355 Bohr) occupying 0.838758 of unit cell:	Completed after 0 iterations at t[s]:    997.05
ElecMinimize: 	Step increased G by 3.197943e-08, reducing alpha to 1.779427e-05.
ElecMinimize: 	Step failed to reduce G after 3 attempts. Quitting step.
ElecMinimize: 	Undoing step.
	Linear fluid (dielectric constant: 78.4, screening length: 5.74355 Bohr) occupying 0.838758 of unit cell:	Completed after 0 iterations at t[s]:   1005.01
ElecMinimize: 	Step failed: resetting search direction.
	FillingsUpdate:  mu: -0.171251800  nElectrons: 327.752721
	SubspaceRotationAdjust: set factor to 1.12
ElecMinimize: Iter:  59  G: -1819.081761136904561  |grad|_K:  1.035e-07  alpha:  1.779e-05
	Linear fluid (dielectric constant: 78.4, screening length: 5.74355 Bohr) occupying 0.838757 of unit cell:	Completed after 0 iterations at t[s]:   1013.10
	Linear fluid (dielectric constant: 78.4, screening length: 5.74355 Bohr) occupying 0.838756 of unit cell:	Completed after 0 iterations at t[s]:   1016.96
	FillingsUpdate:  mu: -0.171251800  nElectrons: 327.752519
	SubspaceRotationAdjust: set factor to 1.54
ElecMinimize: Iter:  60  G: -1819.081761204698296  |grad|_K:  7.515e-08  alpha:  5.856e-02  linmin: -1.428e-03  t[s]:   1021.16
	Linear fluid (dielectric constant: 78.4, screening length: 5.74355 Bohr) occupying 0.838753 of unit cell:	Completed after 1 iterations at t[s]:   1024.48
	Linear fluid (dielectric constant: 78.4, screening length: 5.74355 Bohr) occupying 0.838755 of unit cell:	Completed after 0 iterations at t[s]:   1028.32
ElecMinimize: 	Step increased G by 1.096123e-08, reducing alpha to 2.412212e-03.
	Linear fluid (dielectric constant: 78.4, screening length: 5.74355 Bohr) occupying 0.838756 of unit cell:	Completed after 0 iterations at t[s]:   1034.97
ElecMinimize: 	Step increased G by 1.121089e-08, reducing alpha to 2.412212e-04.
	Linear fluid (dielectric constant: 78.4, screening length: 5.74355 Bohr) occupying 0.838756 of unit cell:	Completed after 0 iterations at t[s]:   1042.01
ElecMinimize: 	Step increased G by 1.146395e-08, reducing alpha to 2.412212e-05.
ElecMinimize: 	Step failed to reduce G after 3 attempts. Quitting step.
ElecMinimize: 	Undoing step.
	Linear fluid (dielectric constant: 78.4, screening length: 5.74355 Bohr) occupying 0.838756 of unit cell:	Completed after 0 iterations at t[s]:   1049.56
ElecMinimize: 	Step failed: resetting search direction.
	FillingsUpdate:  mu: -0.171251800  nElectrons: 327.752519
	SubspaceRotationAdjust: set factor to 0.952
ElecMinimize: Iter:  61  G: -1819.081761193220927  |grad|_K:  1.292e-07  alpha:  2.412e-05
	Linear fluid (dielectric constant: 78.4, screening length: 5.74355 Bohr) occupying 0.838776 of unit cell:	Completed after 2 iterations at t[s]:   1057.79
	Linear fluid (dielectric constant: 78.4, screening length: 5.74355 Bohr) occupying 0.838764 of unit cell:	Completed after 0 iterations at t[s]:   1061.68
	FillingsUpdate:  mu: -0.171251800  nElectrons: 327.753164
	SubspaceRotationAdjust: set factor to 0.489
ElecMinimize: Iter:  62  G: -1819.081761212797801  |grad|_K:  1.310e-07  alpha:  2.233e-02  linmin:  1.857e-03  t[s]:   1065.68
	Linear fluid (dielectric constant: 78.4, screening length: 5.74355 Bohr) occupying 0.838766 of unit cell:	Completed after 0 iterations at t[s]:   1068.75
	Linear fluid (dielectric constant: 78.4, screening length: 5.74355 Bohr) occupying 0.838769 of unit cell:	Completed after 0 iterations at t[s]:   1072.64
	FillingsUpdate:  mu: -0.171251800  nElectrons: 327.753609
	SubspaceRotationAdjust: set factor to 0.376
ElecMinimize: Iter:  63  G: -1819.081761220195631  |grad|_K:  8.998e-08  alpha:  5.337e-02  linmin: -1.155e-06  t[s]:   1076.73
	Linear fluid (dielectric constant: 78.4, screening length: 5.74355 Bohr) occupying 0.838765 of unit cell:	Completed after 0 iterations at t[s]:   1080.43
	Linear fluid (dielectric constant: 78.4, screening length: 5.74355 Bohr) occupying 0.838763 of unit cell:	Completed after 1 iterations at t[s]:   1085.22
ElecMinimize: 	Step increased G by 2.660136e-08, reducing alpha to 8.332683e-03.
	Linear fluid (dielectric constant: 78.4, screening length: 5.74355 Bohr) occupying 0.838768 of unit cell:	Completed after 0 iterations at t[s]:   1093.06
	FillingsUpdate:  mu: -0.171251800  nElectrons: 327.753563
	SubspaceRotationAdjust: set factor to 0.226
ElecMinimize: Iter:  64  G: -1819.081761248826297  |grad|_K:  7.040e-08  alpha:  8.333e-03  linmin:  6.658e-04  t[s]:   1097.19
	Linear fluid (dielectric constant: 78.4, screening length: 5.74355 Bohr) occupying 0.838768 of unit cell:	Completed after 0 iterations at t[s]:   1100.35
ElecMinimize: 	Predicted alpha/alphaT>3.000000, increasing alphaT to 2.499805e-02.
	Linear fluid (dielectric constant: 78.4, screening length: 5.74355 Bohr) occupying 0.838768 of unit cell:	Completed after 0 iterations at t[s]:   1104.50
ElecMinimize: 	Predicted alpha/alphaT>3.000000, increasing alphaT to 7.499414e-02.
	Linear fluid (dielectric constant: 78.4, screening length: 5.74355 Bohr) occupying 0.838769 of unit cell:	Completed after 0 iterations at t[s]:   1108.34
	Linear fluid (dielectric constant: 78.4, screening length: 5.74355 Bohr) occupying 0.838771 of unit cell:	Completed after 1 iterations at t[s]:   1112.45
ElecMinimize: 	Step increased G by 4.082335e-08, reducing alpha to 2.229051e-02.
	Linear fluid (dielectric constant: 78.4, screening length: 5.74355 Bohr) occupying 0.838768 of unit cell:	Completed after 0 iterations at t[s]:   1120.18
ElecMinimize: 	Step increased G by 8.071993e-09, reducing alpha to 2.229051e-03.
	Linear fluid (dielectric constant: 78.4, screening length: 5.74355 Bohr) occupying 0.838768 of unit cell:	Completed after 0 iterations at t[s]:   1128.01
ElecMinimize: 	Step increased G by 8.858933e-09, reducing alpha to 2.229051e-04.
ElecMinimize: 	Step failed to reduce G after 3 attempts. Quitting step.
ElecMinimize: 	Undoing step.
	Linear fluid (dielectric constant: 78.4, screening length: 5.74355 Bohr) occupying 0.838768 of unit cell:	Completed after 0 iterations at t[s]:   1134.48
ElecMinimize: 	Step failed: resetting search direction.
	FillingsUpdate:  mu: -0.171251800  nElectrons: 327.753565
	SubspaceRotationAdjust: set factor to 0.125
	SubspaceRotationAdjust: resetting CG because factor has changed by 0.125149
	Linear fluid (dielectric constant: 78.4, screening length: 5.74355 Bohr) occupying 0.838768 of unit cell:	Completed after 0 iterations at t[s]:   1140.54
ElecMinimize: 	State modified externally: resetting search direction.
ElecMinimize: Iter:  65  G: -1819.081761239940761  |grad|_K:  3.241e-08  alpha:  2.229e-04
	Linear fluid (dielectric constant: 78.4, screening length: 5.74355 Bohr) occupying 0.838768 of unit cell:	Completed after 0 iterations at t[s]:   1147.68
ElecMinimize: 	Wrong curvature in test step, increasing alphaT to 2.499805e-02.
	Linear fluid (dielectric constant: 78.4, screening length: 5.74355 Bohr) occupying 0.838768 of unit cell:	Completed after 0 iterations at t[s]:   1150.80
	FillingsUpdate:  mu: -0.171251800  nElectrons: 327.753558
	SubspaceRotationAdjust: set factor to 0.065
ElecMinimize: Iter:  66  G: -1819.081761241332970  |grad|_K:  3.181e-08  alpha: -4.513e-01  linmin: -2.208e-03  t[s]:   1154.77
	Linear fluid (dielectric constant: 78.4, screening length: 5.74355 Bohr) occupying 0.838747 of unit cell:	Completed after 4 iterations at t[s]:   1158.35
	Linear fluid (dielectric constant: 78.4, screening length: 5.74355 Bohr) occupying 0.838767 of unit cell:	Completed after 3 iterations at t[s]:   1162.69
ElecMinimize: 	Step increased G by 3.656123e-08, reducing alpha to 6.366118e-03.
	Linear fluid (dielectric constant: 78.4, screening length: 5.74355 Bohr) occupying 0.838768 of unit cell:	Completed after 0 iterations at t[s]:   1169.89
ElecMinimize: 	Step increased G by 2.145316e-08, reducing alpha to 6.366118e-04.
	Linear fluid (dielectric constant: 78.4, screening length: 5.74355 Bohr) occupying 0.838768 of unit cell:	Completed after 0 iterations at t[s]:   1176.94
ElecMinimize: 	Step increased G by 2.019988e-08, reducing alpha to 6.366118e-05.
ElecMinimize: 	Step failed to reduce G after 3 attempts. Quitting step.
ElecMinimize: 	Undoing step.
	Linear fluid (dielectric constant: 78.4, screening length: 5.74355 Bohr) occupying 0.838768 of unit cell:	Completed after 0 iterations at t[s]:   1183.70
ElecMinimize: 	Step failed: resetting search direction.
	FillingsUpdate:  mu: -0.171251800  nElectrons: 327.753557
	SubspaceRotationAdjust: set factor to 0.0643
ElecMinimize: Iter:  67  G: -1819.081761221143097  |grad|_K:  6.174e-08  alpha:  6.366e-05
	Linear fluid (dielectric constant: 78.4, screening length: 5.74355 Bohr) occupying 0.838762 of unit cell:	Completed after 2 iterations at t[s]:   1192.10
	Linear fluid (dielectric constant: 78.4, screening length: 5.74355 Bohr) occupying 0.838767 of unit cell:	Completed after 3 iterations at t[s]:   1197.63
ElecMinimize: 	Step increased G by 3.647074e-09, reducing alpha to 7.766731e-03.
	Linear fluid (dielectric constant: 78.4, screening length: 5.74355 Bohr) occupying 0.838768 of unit cell:	Completed after 0 iterations at t[s]:   1204.93
	FillingsUpdate:  mu: -0.171251800  nElectrons: 327.753553
	SubspaceRotationAdjust: set factor to 0.0652
ElecMinimize: Iter:  68  G: -1819.081761231249629  |grad|_K:  3.314e-08  alpha:  7.767e-03  linmin:  1.607e-03  t[s]:   1209.11
	Linear fluid (dielectric constant: 78.4, screening length: 5.74355 Bohr) occupying 0.838768 of unit cell:	Completed after 0 iterations at t[s]:   1212.29
ElecMinimize: 	Predicted alpha/alphaT>3.000000, increasing alphaT to 2.330019e-02.
	Linear fluid (dielectric constant: 78.4, screening length: 5.74355 Bohr) occupying 0.838768 of unit cell:	Completed after 0 iterations at t[s]:   1216.16
ElecMinimize: 	Predicted alpha/alphaT>3.000000, increasing alphaT to 6.990058e-02.
	Linear fluid (dielectric constant: 78.4, screening length: 5.74355 Bohr) occupying 0.838767 of unit cell:	Completed after 0 iterations at t[s]:   1220.07
ElecMinimize: 	Predicted alpha/alphaT>3.000000, increasing alphaT to 2.097017e-01.
	Linear fluid (dielectric constant: 78.4, screening length: 5.74355 Bohr) occupying 0.838764 of unit cell:	Completed after 0 iterations at t[s]:   1223.84
	FillingsUpdate:  mu: -0.171251800  nElectrons: 327.753204
	SubspaceRotationAdjust: set factor to 0.0721
ElecMinimize: Iter:  69  G: -1819.081761275615236  |grad|_K:  2.976e-08  alpha:  6.516e-01  linmin: -1.843e-07  t[s]:   1227.94
	Linear fluid (dielectric constant: 78.4, screening length: 5.74355 Bohr) occupying 0.838755 of unit cell:	Completed after 2 iterations at t[s]:   1231.59
	Linear fluid (dielectric constant: 78.4, screening length: 5.74355 Bohr) occupying 0.838762 of unit cell:	Completed after 0 iterations at t[s]:   1236.10
ElecMinimize: 	Step increased G by 5.511902e-08, reducing alpha to 9.972079e-03.
	Linear fluid (dielectric constant: 78.4, screening length: 5.74355 Bohr) occupying 0.838763 of unit cell:	Completed after 0 iterations at t[s]:   1243.96
ElecMinimize: 	Step increased G by 4.638150e-08, reducing alpha to 9.972079e-04.
	Linear fluid (dielectric constant: 78.4, screening length: 5.74355 Bohr) occupying 0.838764 of unit cell:	Completed after 0 iterations at t[s]:   1251.03
ElecMinimize: 	Step increased G by 4.574258e-08, reducing alpha to 9.972079e-05.
ElecMinimize: 	Step failed to reduce G after 3 attempts. Quitting step.
ElecMinimize: 	Undoing step.
	Linear fluid (dielectric constant: 78.4, screening length: 5.74355 Bohr) occupying 0.838764 of unit cell:	Completed after 0 iterations at t[s]:   1257.95
ElecMinimize: 	Step failed: resetting search direction.
	FillingsUpdate:  mu: -0.171251800  nElectrons: 327.753204
	SubspaceRotationAdjust: set factor to 0.0706
ElecMinimize: Iter:  70  G: -1819.081761229868789  |grad|_K:  1.150e-07  alpha:  9.972e-05
	Linear fluid (dielectric constant: 78.4, screening length: 5.74355 Bohr) occupying 0.838774 of unit cell:	Completed after 3 iterations at t[s]:   1265.61
	Linear fluid (dielectric constant: 78.4, screening length: 5.74355 Bohr) occupying 0.838765 of unit cell:	Completed after 2 iterations at t[s]:   1269.91
	FillingsUpdate:  mu: -0.171251800  nElectrons: 327.753295
	SubspaceRotationAdjust: set factor to 0.0682
ElecMinimize: Iter:  71  G: -1819.081761260513758  |grad|_K:  4.615e-08  alpha:  7.127e-02  linmin:  2.427e-03  t[s]:   1273.96
	Linear fluid (dielectric constant: 78.4, screening length: 5.74355 Bohr) occupying 0.838765 of unit cell:	Completed after 0 iterations at t[s]:   1277.31
ElecMinimize: 	Predicted alpha/alphaT>3.000000, increasing alphaT to 2.138001e-01.
	Linear fluid (dielectric constant: 78.4, screening length: 5.74355 Bohr) occupying 0.838766 of unit cell:	Completed after 1 iterations at t[s]:   1281.87
	Linear fluid (dielectric constant: 78.4, screening length: 5.74355 Bohr) occupying 0.838765 of unit cell:	Completed after 0 iterations at t[s]:   1286.48
ElecMinimize: 	Step increased G by 3.184368e-09, reducing alpha to 8.257606e-03.
	Linear fluid (dielectric constant: 78.4, screening length: 5.74355 Bohr) occupying 0.838765 of unit cell:	Completed after 0 iterations at t[s]:   1293.45
ElecMinimize: 	Step increased G by 4.107733e-09, reducing alpha to 8.257606e-04.
	Linear fluid (dielectric constant: 78.4, screening length: 5.74355 Bohr) occupying 0.838765 of unit cell:	Completed after 0 iterations at t[s]:   1300.27
ElecMinimize: 	Step increased G by 4.572030e-09, reducing alpha to 8.257606e-05.
ElecMinimize: 	Step failed to reduce G after 3 attempts. Quitting step.
ElecMinimize: 	Undoing step.
	Linear fluid (dielectric constant: 78.4, screening length: 5.74355 Bohr) occupying 0.838765 of unit cell:	Completed after 0 iterations at t[s]:   1306.92
ElecMinimize: 	Step failed: resetting search direction.
	FillingsUpdate:  mu: -0.171251800  nElectrons: 327.753295
	SubspaceRotationAdjust: set factor to 0.0655
ElecMinimize: Iter:  72  G: -1819.081761255945594  |grad|_K:  2.299e-08  alpha:  8.258e-05
	Linear fluid (dielectric constant: 78.4, screening length: 5.74355 Bohr) occupying 0.838764 of unit cell:	Completed after 0 iterations at t[s]:   1314.25
ElecMinimize: 	Predicted alpha/alphaT>3.000000, increasing alphaT to 2.138001e-01.
	Linear fluid (dielectric constant: 78.4, screening length: 5.74355 Bohr) occupying 0.838764 of unit cell:	Completed after 0 iterations at t[s]:   1318.05
	Linear fluid (dielectric constant: 78.4, screening length: 5.74355 Bohr) occupying 0.838764 of unit cell:	Completed after 0 iterations at t[s]:   1321.84
	FillingsUpdate:  mu: -0.171251800  nElectrons: 327.753210
	SubspaceRotationAdjust: set factor to 0.086
ElecMinimize: Iter:  73  G: -1819.081761266068042  |grad|_K:  1.343e-08  alpha:  2.429e-01  linmin: -3.048e-06  t[s]:   1326.15
	Linear fluid (dielectric constant: 78.4, screening length: 5.74355 Bohr) occupying 0.838762 of unit cell:	Completed after 0 iterations at t[s]:   1329.56
	Linear fluid (dielectric constant: 78.4, screening length: 5.74355 Bohr) occupying 0.838760 of unit cell:	Completed after 0 iterations at t[s]:   1334.21
	FillingsUpdate:  mu: -0.171251800  nElectrons: 327.752934
	SubspaceRotationAdjust: set factor to 0.0932
ElecMinimize: Iter:  74  G: -1819.081761273913799  |grad|_K:  2.940e-08  alpha:  5.488e-01  linmin: -9.397e-07  t[s]:   1338.80
	Linear fluid (dielectric constant: 78.4, screening length: 5.74355 Bohr) occupying 0.838740 of unit cell:	Completed after 3 iterations at t[s]:   1342.47
	Linear fluid (dielectric constant: 78.4, screening length: 5.74355 Bohr) occupying 0.838759 of unit cell:	Completed after 2 iterations at t[s]:   1346.68
ElecMinimize: 	Step increased G by 4.128378e-08, reducing alpha to 3.920630e-03.
	Linear fluid (dielectric constant: 78.4, screening length: 5.74355 Bohr) occupying 0.838760 of unit cell:	Completed after 0 iterations at t[s]:   1353.42
ElecMinimize: 	Step increased G by 2.538604e-08, reducing alpha to 3.920630e-04.
	Linear fluid (dielectric constant: 78.4, screening length: 5.74355 Bohr) occupying 0.838760 of unit cell:	Completed after 0 iterations at t[s]:   1360.27
ElecMinimize: 	Step increased G by 2.382967e-08, reducing alpha to 3.920630e-05.
ElecMinimize: 	Step failed to reduce G after 3 attempts. Quitting step.
ElecMinimize: 	Undoing step.
	Linear fluid (dielectric constant: 78.4, screening length: 5.74355 Bohr) occupying 0.838760 of unit cell:	Completed after 0 iterations at t[s]:   1367.24
ElecMinimize: 	Step failed: resetting search direction.
	FillingsUpdate:  mu: -0.171251800  nElectrons: 327.752933
	SubspaceRotationAdjust: set factor to 0.091
ElecMinimize: Iter:  75  G: -1819.081761250101408  |grad|_K:  1.243e-07  alpha:  3.921e-05
	Linear fluid (dielectric constant: 78.4, screening length: 5.74355 Bohr) occupying 0.838773 of unit cell:	Completed after 2 iterations at t[s]:   1376.06
	Linear fluid (dielectric constant: 78.4, screening length: 5.74355 Bohr) occupying 0.838762 of unit cell:	Completed after 3 iterations at t[s]:   1381.32
	FillingsUpdate:  mu: -0.171251800  nElectrons: 327.753061
	SubspaceRotationAdjust: set factor to 0.0836
ElecMinimize: Iter:  76  G: -1819.081761253414697  |grad|_K:  4.297e-08  alpha:  6.565e-02  linmin:  3.991e-03  t[s]:   1385.66
	Linear fluid (dielectric constant: 78.4, screening length: 5.74355 Bohr) occupying 0.838762 of unit cell:	Completed after 0 iterations at t[s]:   1388.86
ElecMinimize: 	Predicted alpha/alphaT>3.000000, increasing alphaT to 1.969509e-01.
	Linear fluid (dielectric constant: 78.4, screening length: 5.74355 Bohr) occupying 0.838762 of unit cell:	Completed after 0 iterations at t[s]:   1392.65
	Linear fluid (dielectric constant: 78.4, screening length: 5.74355 Bohr) occupying 0.838762 of unit cell:	Completed after 0 iterations at t[s]:   1396.48
	FillingsUpdate:  mu: -0.171251800  nElectrons: 327.753089
	SubspaceRotationAdjust: set factor to 0.0879
ElecMinimize: Iter:  77  G: -1819.081761280248884  |grad|_K:  2.138e-08  alpha:  2.561e-01  linmin: -5.141e-07  t[s]:   1400.46
	Linear fluid (dielectric constant: 78.4, screening length: 5.74355 Bohr) occupying 0.838762 of unit cell:	Completed after 0 iterations at t[s]:   1403.46
	Linear fluid (dielectric constant: 78.4, screening length: 5.74355 Bohr) occupying 0.838762 of unit cell:	Completed after 0 iterations at t[s]:   1407.22
	FillingsUpdate:  mu: -0.171251800  nElectrons: 327.753078
	SubspaceRotationAdjust: set factor to 0.1
ElecMinimize: Iter:  78  G: -1819.081761284364347  |grad|_K:  1.333e-08  alpha:  1.140e-01  linmin: -4.074e-07  t[s]:   1411.32
	Linear fluid (dielectric constant: 78.4, screening length: 5.74355 Bohr) occupying 0.838762 of unit cell:	Completed after 0 iterations at t[s]:   1414.85
	Linear fluid (dielectric constant: 78.4, screening length: 5.74355 Bohr) occupying 0.838761 of unit cell:	Completed after 0 iterations at t[s]:   1419.40
	FillingsUpdate:  mu: -0.171251800  nElectrons: 327.753021
	SubspaceRotationAdjust: set factor to 0.115
ElecMinimize: Iter:  79  G: -1819.081761288773350  |grad|_K:  1.421e-08  alpha:  3.091e-01  linmin: -8.105e-06  t[s]:   1424.12
ElecMinimize: Converged (|Delta G|<1.000000e-08 for 2 iters).
Setting wave functions to eigenvectors of Hamiltonian

# Ionic positions in lattice coordinates:
ion Cu   0.083195471234602   0.907345973801322   0.500218463454101 0
ion Cu   0.337232207565054   0.586906372839814   0.529586197271149 0
ion Cu   0.172999710657984   0.404649848625140   0.512726287681278 0
ion Cu   0.581167200575255   0.923015824760467   0.469710173137098 0
ion Cu   0.831175441009722   0.593456161757833   0.499877460863005 0
ion Cu   0.922153224255255   0.089983527100010   0.510665203178808 0
ion Cu   0.661799502832123   0.410770824449583   0.485185408471421 0
ion Se   0.206852958055083   0.143319115638979   0.487323467582203 0
ion Se   0.426991935424275   0.326498343091964   0.514702697308752 0
ion Se   0.329971883692805   0.857626365140477   0.502619251163345 0
ion Se   0.067976265809582   0.653459169804383   0.495148212225678 0
ion Se   0.690834577475144   0.149792535506456   0.481274733496394 0
ion Se   0.938250824400492   0.344517976879658   0.518763575599793 0
ion Se   0.805429691189093   0.851303904498016   0.523231775195157 0
ion Se   0.551598136238259   0.650289503921206   0.467827059334973 0
ion O   0.490159175988716   0.600351941131666   0.552713133819185 0
ion O   0.217308272597115   0.895167706017268   0.444133921907260 0
ion O   0.033699255236647   0.409497233032171   0.459331209391611 0
ion O   0.269014323667928   0.074633727756370   0.558409602760947 0
ion O   0.180474122294754   0.564073255818084   0.524107844021323 0
ion O   0.429664044799675   0.914269486654098   0.442545644803402 0
ion O   0.323999887746145   0.430059990752866   0.547949835038061 0
ion O   0.067948469134282   0.058945133152060   0.478663324781263 0
ion O   0.147616323208470   0.254512810974018   0.538915367951098 0
ion O   0.349829820632591   0.266189360191253   0.444982338068924 0
ion O   0.343061201320823   0.719854574926036   0.471259541755106 0
ion O   0.102726389183488   0.767835768068938   0.549206519723251 0
ion O   0.969827207434527   0.593209229261958   0.554930913860254 0
ion O   0.739466438221093   0.927679111499413   0.451610411116701 0
ion O   0.510151712829945   0.409976738288310   0.455371976442324 0
ion O   0.780688471209381   0.104385807130104   0.556172935012840 0
ion O   0.677184742417436   0.568205709994262   0.471921423742776 0
ion O   0.930920042084521   0.935061628088641   0.532047483244375 0
ion O   0.821566555170965   0.431179697423697   0.493290392742954 0
ion O   0.572125809506053   0.073650227068601   0.498676141985933 0
ion O   0.647160631100894   0.269231510334705   0.528039846649321 0
ion O   0.907606452775289   0.230629234898222   0.462265058245050 0
ion O   0.858134963829747   0.744874616546477   0.468548054685131 0
ion O   0.606218956194774   0.771318734175470   0.502662636287766 0


# Forces in Lattice coordinates:
force Cu  -0.088089848040378  -0.029011628507895   0.029642725378316 0
force Cu  -0.052071943155264  -0.026432147938169   0.071012087206938 0
force Cu   0.096266265239683   0.048611349762055   0.015742819193747 0
force Cu   0.014255129187523  -0.084975291866890  -0.029103355943511 0
force Cu  -0.106091002731756  -0.005284179421828  -0.002116831185617 0
force Cu   0.068808012838398   0.046942252964325   0.026290894819539 0
force Cu   0.121716690188659   0.079103270150283  -0.015856121715601 0
force Se  -0.546969508727503   0.046685998839609  -0.210411709338089 0
force Se  -0.002857898884094   0.370490318528452   0.024759475699380 0
force Se  -0.057956805205571  -0.197956747746746  -0.406137504093028 0
force Se   0.095498056181372  -0.108189933647749   0.242273427808403 0
force Se  -0.011288416525310   0.013847192356725   0.312736039675821 0
force Se  -0.129743131724641   0.097259342773969  -0.252204971549826 0
force Se   0.130788647780522   0.072299830464944  -0.041590634698569 0
force Se   0.183379836282526  -0.046263349913856   0.211371221955776 0
force O   0.233707580246502   0.062060640942347   0.073445566717197 0
force O   0.286146075988250  -0.019402807578301  -0.134645578591339 0
force O  -0.184936040238838  -0.028263227083907  -0.170081400449895 0
force O   0.124961136445775  -0.078310493901270   0.334306641083316 0
force O  -0.226955138480180   0.211324710760408  -0.057146094676878 0
force O  -0.200708937624913   0.005497536429795  -0.049273406818180 0
force O   0.225883303256381  -0.310118732992541   0.042831564246562 0
force O   0.346187997396354   0.216429193569907  -0.029804287470159 0
force O   0.079510064944322  -0.401156110944546   0.024487587129705 0
force O   0.046362155417832  -0.025189889635150  -0.161046685986264 0
force O  -0.030033579161955   0.383012676290074  -0.109281407031020 0
force O   0.002659126296988  -0.209342909316494   0.160686960789107 0
force O   0.161154203497569   0.048111970355982   0.150981446926750 0
force O   0.202845692995181  -0.020902417130010  -0.112089034390987 0
force O  -0.306603685568681  -0.098682721442451  -0.018871465435382 0
force O  -0.328506578146361   0.042770056424697   0.113947620736639 0
force O  -0.137476888849021   0.147702075172990  -0.139007883431297 0
force O  -0.210546943233307  -0.253723212698034   0.098818835163833 0
force O   0.178395567201652  -0.171615525933175   0.067073530469098 0
force O   0.023615190325367   0.250304759695970   0.052385481646819 0
force O   0.038386801219291  -0.259645533050250   0.064073471203043 0
force O   0.000267444236761   0.281212914823200  -0.133199451902556 0
force O   0.015868813481188   0.169848931063550  -0.098410394313660 0
force O  -0.060053729596627  -0.221510680449821   0.035138657835127 0

# Energy components:
   A_diel =       -0.4667928452663999
   Eewald =     5026.2588662784628468
       EH =     6774.6303639667985408
     Eloc =   -14111.4656660333894251
      Enl =      332.3603982565899742
      Exc =     -342.3488470964793464
 Exc_core =       99.7164107053047388
       KE =      346.1704064537666454
  MuShift =       -0.0263796786347345
-------------------------------------
     Etot =    -1875.1712399928469495
       TS =        0.0388161622290091
-------------------------------------
        F =    -1875.2100561550760176
      muN =      -56.1282948663026673
-------------------------------------
        G =    -1819.0817612887733503

IonicMinimize: Iter:   0  G: -1819.081761288773350  |grad|_K:  0.000e+00  t[s]:   1428.70
IonicMinimize: Converged (|grad|_K<1.000000e-04).

#--- Lowdin population analysis ---
# oxidation-state Cu +0.277 +0.284 +0.276 +0.251 +0.283 +0.279 +0.290
# oxidation-state Se +1.567 +1.576 +1.594 +1.601 +1.600 +1.597 +1.592 +1.598
# oxidation-state O -0.629 -0.636 -0.627 -0.832 -0.490 -0.634 -0.513 -0.489 -0.651 -0.790 -0.652 -0.635 -0.637 -0.635 -0.627 -0.655 -0.502 -0.495 -0.506 -0.634 -0.637 -0.630 -0.642 -0.643


Dumping 'NbTe2.fillings' ... done
Dumping 'NbTe2.wfns' ... done
Dumping 'NbTe2.fluidState' ... done
Dumping 'NbTe2.eigenvals' ... done
End date and time: Thu Jul 16 09:59:41 2020  (Duration: 0-0:23:50.86)
Done!

*************** JDFTx 1.5.0  ***************

Start date and time: Thu Jul 16 10:01:10 2020
Executable jdftx_gpu with command-line: -i Charged.in -o Charged.out
Running on hosts (process indices):  amax (0-5)
Divided in process groups (process indices):  0 (0)  1 (1)  2 (2)  3 (3)  4 (4)  5 (5)
gpuInit: Found compatible cuda device 0 'Tesla K80'
gpuInit: Found compatible cuda device 1 'Tesla K80'
gpuInit: Found compatible cuda device 2 'Tesla K80'
gpuInit: Found compatible cuda device 3 'Tesla K80'
gpuInit: Found compatible cuda device 4 'Tesla K80'
gpuInit: Found compatible cuda device 5 'Tesla K80'
gpuInit: Selected device 0
Resource initialization completed at t[s]:     19.47
Run totals: 6 processes, 24 threads, 6 GPUs


Input parsed successfully to the following command list (including defaults):

basis kpoint-dependent
cache-projectors no
coords-type Lattice
core-overlap-check none
coulomb-interaction Slab 001
[...]
ElecMinimize: 	Step failed: resetting search direction.
	FillingsUpdate:  mu: -0.244750400  nElectrons: 323.717782
	SubspaceRotationAdjust: set factor to 2.73
ElecMinimize: Iter:  62  G: -1795.159294831339366  |grad|_K:  1.841e-07  alpha:  9.450e-06
	Linear fluid (dielectric constant: 78.4, screening length: 5.74355 Bohr) occupying 0.816606 of unit cell:	Completed after 1 iterations at t[s]:    912.60
	Linear fluid (dielectric constant: 78.4, screening length: 5.74355 Bohr) occupying 0.816606 of unit cell:	Completed after 0 iterations at t[s]:    916.51
	FillingsUpdate:  mu: -0.244750400  nElectrons: 323.717952
	SubspaceRotationAdjust: set factor to 3.51
ElecMinimize: Iter:  63  G: -1795.159294924433652  |grad|_K:  1.653e-07  alpha:  2.881e-02  linmin: -3.554e-03  t[s]:    920.68
	Linear fluid (dielectric constant: 78.4, screening length: 5.74355 Bohr) occupying 0.816606 of unit cell:	Completed after 0 iterations at t[s]:    923.66
ElecMinimize: 	Predicted alpha/alphaT>3.000000, increasing alphaT to 8.641609e-02.
	Linear fluid (dielectric constant: 78.4, screening length: 5.74355 Bohr) occupying 0.816605 of unit cell:	Completed after 2 iterations at t[s]:    927.81
	Linear fluid (dielectric constant: 78.4, screening length: 5.74355 Bohr) occupying 0.816605 of unit cell:	Completed after 0 iterations at t[s]:    931.62
	FillingsUpdate:  mu: -0.244750400  nElectrons: 323.718176
	SubspaceRotationAdjust: set factor to 2.33
ElecMinimize: Iter:  64  G: -1795.159295168945391  |grad|_K:  2.197e-07  alpha:  6.578e-02  linmin:  1.103e-04  t[s]:    935.85
	Linear fluid (dielectric constant: 78.4, screening length: 5.74355 Bohr) occupying 0.816604 of unit cell:	Completed after 3 iterations at t[s]:    940.26
	Linear fluid (dielectric constant: 78.4, screening length: 5.74355 Bohr) occupying 0.816605 of unit cell:	Completed after 3 iterations at t[s]:    945.44
	FillingsUpdate:  mu: -0.244750400  nElectrons: 323.718112
	SubspaceRotationAdjust: set factor to 2.42
ElecMinimize: Iter:  65  G: -1795.159295218787975  |grad|_K:  1.215e-07  alpha:  1.502e-02  linmin:  3.747e-05  t[s]:    949.96
	Linear fluid (dielectric constant: 78.4, screening length: 5.74355 Bohr) occupying 0.816605 of unit cell:	Completed after 0 iterations at t[s]:    953.11
ElecMinimize: 	Predicted alpha/alphaT>3.000000, increasing alphaT to 4.505687e-02.
	Linear fluid (dielectric constant: 78.4, screening length: 5.74355 Bohr) occupying 0.816605 of unit cell:	Completed after 0 iterations at t[s]:    956.94
ElecMinimize: 	Predicted alpha/alphaT>3.000000, increasing alphaT to 1.351706e-01.
	Linear fluid (dielectric constant: 78.4, screening length: 5.74355 Bohr) occupying 0.816604 of unit cell:	Completed after 1 iterations at t[s]:    960.95
	Linear fluid (dielectric constant: 78.4, screening length: 5.74355 Bohr) occupying 0.816605 of unit cell:	Completed after 0 iterations at t[s]:    964.74
	FillingsUpdate:  mu: -0.244750400  nElectrons: 323.718499
	SubspaceRotationAdjust: set factor to 1.5
ElecMinimize: Iter:  66  G: -1795.159295328555118  |grad|_K:  2.766e-07  alpha:  7.189e-02  linmin:  4.997e-04  t[s]:    968.78
	Linear fluid (dielectric constant: 78.4, screening length: 5.74355 Bohr) occupying 0.816602 of unit cell:	Completed after 3 iterations at t[s]:    972.54
	Linear fluid (dielectric constant: 78.4, screening length: 5.74355 Bohr) occupying 0.816604 of unit cell:	Completed after 2 iterations at t[s]:    976.80
	FillingsUpdate:  mu: -0.244750400  nElectrons: 323.719004
	SubspaceRotationAdjust: set factor to 1.58
ElecMinimize: Iter:  67  G: -1795.159295364896252  |grad|_K:  1.504e-07  alpha:  1.278e-02  linmin:  1.194e-04  t[s]:    981.29
	Linear fluid (dielectric constant: 78.4, screening length: 5.74355 Bohr) occupying 0.816604 of unit cell:	Completed after 0 iterations at t[s]:    984.83
ElecMinimize: 	Predicted alpha/alphaT>3.000000, increasing alphaT to 3.833852e-02.
	Linear fluid (dielectric constant: 78.4, screening length: 5.74355 Bohr) occupying 0.816604 of unit cell:	Completed after 1 iterations at t[s]:    989.59
	Linear fluid (dielectric constant: 78.4, screening length: 5.74355 Bohr) occupying 0.816604 of unit cell:	Completed after 0 iterations at t[s]:    994.13
	FillingsUpdate:  mu: -0.244750400  nElectrons: 323.719161
	SubspaceRotationAdjust: set factor to 2.36
ElecMinimize: Iter:  68  G: -1795.159295412190431  |grad|_K:  1.134e-07  alpha:  3.310e-02  linmin: -3.431e-04  t[s]:    998.30
	Linear fluid (dielectric constant: 78.4, screening length: 5.74355 Bohr) occupying 0.816603 of unit cell:	Completed after 0 iterations at t[s]:   1001.58
ElecMinimize: 	Predicted alpha/alphaT>3.000000, increasing alphaT to 9.928540e-02.
	Linear fluid (dielectric constant: 78.4, screening length: 5.74355 Bohr) occupying 0.816603 of unit cell:	Completed after 2 iterations at t[s]:   1005.78
	Linear fluid (dielectric constant: 78.4, screening length: 5.74355 Bohr) occupying 0.816603 of unit cell:	Completed after 2 iterations at t[s]:   1009.97
	FillingsUpdate:  mu: -0.244750400  nElectrons: 323.719028
	SubspaceRotationAdjust: set factor to 1.5
ElecMinimize: Iter:  69  G: -1795.159295428289852  |grad|_K:  1.992e-07  alpha:  2.375e-02  linmin:  7.353e-04  t[s]:   1014.00
	Linear fluid (dielectric constant: 78.4, screening length: 5.74355 Bohr) occupying 0.816603 of unit cell:	Completed after 0 iterations at t[s]:   1017.29
	Linear fluid (dielectric constant: 78.4, screening length: 5.74355 Bohr) occupying 0.816603 of unit cell:	Completed after 0 iterations at t[s]:   1021.52
ElecMinimize: 	Step increased G by 3.558398e-10, reducing alpha to 8.280146e-04.
	Linear fluid (dielectric constant: 78.4, screening length: 5.74355 Bohr) occupying 0.816603 of unit cell:	Completed after 0 iterations at t[s]:   1029.16
ElecMinimize: 	Step increased G by 6.558366e-09, reducing alpha to 8.280146e-05.
	Linear fluid (dielectric constant: 78.4, screening length: 5.74355 Bohr) occupying 0.816603 of unit cell:	Completed after 0 iterations at t[s]:   1036.38
ElecMinimize: 	Step increased G by 7.765493e-09, reducing alpha to 8.280146e-06.
ElecMinimize: 	Step failed to reduce G after 3 attempts. Quitting step.
ElecMinimize: 	Undoing step.
	Linear fluid (dielectric constant: 78.4, screening length: 5.74355 Bohr) occupying 0.816603 of unit cell:	Completed after 0 iterations at t[s]:   1042.92
ElecMinimize: 	Step failed: resetting search direction.
	FillingsUpdate:  mu: -0.244750400  nElectrons: 323.719026
	SubspaceRotationAdjust: set factor to 1.06
ElecMinimize: Iter:  70  G: -1795.159295420518674  |grad|_K:  1.727e-07  alpha:  8.280e-06
	Linear fluid (dielectric constant: 78.4, screening length: 5.74355 Bohr) occupying 0.816603 of unit cell:	Completed after 0 iterations at t[s]:   1049.83
ElecMinimize: 	Predicted alpha/alphaT>3.000000, increasing alphaT to 7.125943e-02.
	Linear fluid (dielectric constant: 78.4, screening length: 5.74355 Bohr) occupying 0.816604 of unit cell:	Completed after 2 iterations at t[s]:   1054.01
	Linear fluid (dielectric constant: 78.4, screening length: 5.74355 Bohr) occupying 0.816603 of unit cell:	Completed after 1 iterations at t[s]:   1057.99
	FillingsUpdate:  mu: -0.244750400  nElectrons: 323.718873
	SubspaceRotationAdjust: set factor to 0.559
ElecMinimize: Iter:  71  G: -1795.159295492817364  |grad|_K:  1.384e-07  alpha:  2.805e-02  linmin:  3.421e-03  t[s]:   1062.00
	Linear fluid (dielectric constant: 78.4, screening length: 5.74355 Bohr) occupying 0.816604 of unit cell:	Completed after 0 iterations at t[s]:   1064.95
ElecMinimize: 	Predicted alpha/alphaT>3.000000, increasing alphaT to 8.414183e-02.
	Linear fluid (dielectric constant: 78.4, screening length: 5.74355 Bohr) occupying 0.816604 of unit cell:	Completed after 1 iterations at t[s]:   1068.74
	Linear fluid (dielectric constant: 78.4, screening length: 5.74355 Bohr) occupying 0.816604 of unit cell:	Completed after 0 iterations at t[s]:   1072.34
	FillingsUpdate:  mu: -0.244750400  nElectrons: 323.718596
	SubspaceRotationAdjust: set factor to 0.457
ElecMinimize: Iter:  72  G: -1795.159295529949759  |grad|_K:  7.699e-08  alpha:  6.884e-02  linmin: -2.167e-03  t[s]:   1076.49
	Linear fluid (dielectric constant: 78.4, screening length: 5.74355 Bohr) occupying 0.816604 of unit cell:	Completed after 0 iterations at t[s]:   1079.58
ElecMinimize: 	Predicted alpha/alphaT>3.000000, increasing alphaT to 2.065270e-01.
	Linear fluid (dielectric constant: 78.4, screening length: 5.74355 Bohr) occupying 0.816604 of unit cell:	Completed after 2 iterations at t[s]:   1083.93
	Linear fluid (dielectric constant: 78.4, screening length: 5.74355 Bohr) occupying 0.816604 of unit cell:	Completed after 2 iterations at t[s]:   1088.08
ElecMinimize: 	Step increased G by 5.589754e-09, reducing alpha to 4.353793e-03.
	Linear fluid (dielectric constant: 78.4, screening length: 5.74355 Bohr) occupying 0.816604 of unit cell:	Completed after 0 iterations at t[s]:   1094.70
	FillingsUpdate:  mu: -0.244750400  nElectrons: 323.718592
	SubspaceRotationAdjust: set factor to 0.304
ElecMinimize: Iter:  73  G: -1795.159295545288387  |grad|_K:  6.717e-08  alpha:  4.354e-03  linmin:  1.857e-03  t[s]:   1099.60
	Linear fluid (dielectric constant: 78.4, screening length: 5.74355 Bohr) occupying 0.816604 of unit cell:	Completed after 0 iterations at t[s]:   1103.23
ElecMinimize: 	Predicted alpha/alphaT>3.000000, increasing alphaT to 1.306138e-02.
	Linear fluid (dielectric constant: 78.4, screening length: 5.74355 Bohr) occupying 0.816604 of unit cell:	Completed after 0 iterations at t[s]:   1107.73
ElecMinimize: 	Predicted alpha/alphaT>3.000000, increasing alphaT to 3.918413e-02.
	Linear fluid (dielectric constant: 78.4, screening length: 5.74355 Bohr) occupying 0.816604 of unit cell:	Completed after 0 iterations at t[s]:   1112.15
ElecMinimize: 	Predicted alpha/alphaT>3.000000, increasing alphaT to 1.175524e-01.
	Linear fluid (dielectric constant: 78.4, screening length: 5.74355 Bohr) occupying 0.816604 of unit cell:	Completed after 0 iterations at t[s]:   1116.00
	FillingsUpdate:  mu: -0.244750400  nElectrons: 323.718297
	SubspaceRotationAdjust: set factor to 0.431
ElecMinimize: Iter:  74  G: -1795.159295572947713  |grad|_K:  5.805e-08  alpha:  1.585e-01  linmin:  7.490e-06  t[s]:   1120.31
	Linear fluid (dielectric constant: 78.4, screening length: 5.74355 Bohr) occupying 0.816604 of unit cell:	Completed after 2 iterations at t[s]:   1123.82
	Linear fluid (dielectric constant: 78.4, screening length: 5.74355 Bohr) occupying 0.816604 of unit cell:	Completed after 0 iterations at t[s]:   1127.57
ElecMinimize: 	Step increased G by 5.737775e-09, reducing alpha to 2.886012e-03.
	Linear fluid (dielectric constant: 78.4, screening length: 5.74355 Bohr) occupying 0.816604 of unit cell:	Completed after 0 iterations at t[s]:   1134.45
	FillingsUpdate:  mu: -0.244750400  nElectrons: 323.718291
	SubspaceRotationAdjust: set factor to 0.389
ElecMinimize: Iter:  75  G: -1795.159295590758347  |grad|_K:  1.164e-07  alpha:  2.886e-03  linmin:  1.398e-03  t[s]:   1139.11
ElecMinimize: 	Bad step direction: g.d > 0.
ElecMinimize: 	Undoing step.
	Linear fluid (dielectric constant: 78.4, screening length: 5.74355 Bohr) occupying 0.816604 of unit cell:	Completed after 0 iterations at t[s]:   1142.94
ElecMinimize: 	Step failed: resetting search direction.
	FillingsUpdate:  mu: -0.244750400  nElectrons: 323.718291
	SubspaceRotationAdjust: set factor to 0.531
ElecMinimize: Iter:  76  G: -1795.159295590761076  |grad|_K:  1.146e-07  alpha:  0.000e+00
	Linear fluid (dielectric constant: 78.4, screening length: 5.74355 Bohr) occupying 0.816604 of unit cell:	Completed after 0 iterations at t[s]:   1151.28
ElecMinimize: 	Predicted alpha/alphaT>3.000000, increasing alphaT to 8.658036e-03.
	Linear fluid (dielectric constant: 78.4, screening length: 5.74355 Bohr) occupying 0.816604 of unit cell:	Completed after 0 iterations at t[s]:   1155.21
	Linear fluid (dielectric constant: 78.4, screening length: 5.74355 Bohr) occupying 0.816604 of unit cell:	Completed after 0 iterations at t[s]:   1159.05
ElecMinimize: 	Step increased G by 1.592366e-08, reducing alpha to 3.211268e-04.
	Linear fluid (dielectric constant: 78.4, screening length: 5.74355 Bohr) occupying 0.816604 of unit cell:	Completed after 0 iterations at t[s]:   1165.73
ElecMinimize: 	Step increased G by 2.114211e-08, reducing alpha to 3.211268e-05.
	Linear fluid (dielectric constant: 78.4, screening length: 5.74355 Bohr) occupying 0.816604 of unit cell:	Completed after 0 iterations at t[s]:   1172.33
ElecMinimize: 	Step increased G by 2.165802e-08, reducing alpha to 3.211268e-06.
ElecMinimize: 	Step failed to reduce G after 3 attempts. Quitting step.
ElecMinimize: 	Undoing step.
	Linear fluid (dielectric constant: 78.4, screening length: 5.74355 Bohr) occupying 0.816604 of unit cell:	Completed after 0 iterations at t[s]:   1179.21
ElecMinimize: 	Step failed along negative gradient direction.
ElecMinimize: Probably at roundoff error limit. (Stopping)
Setting wave functions to eigenvectors of Hamiltonian

# Ionic positions in lattice coordinates:
ion Cu   0.083195471234602   0.907345973801322   0.500218463454101 0
ion Cu   0.337232207565054   0.586906372839814   0.529586197271149 0
ion Cu   0.172999710657984   0.404649848625140   0.512726287681278 0
ion Cu   0.581167200575255   0.923015824760467   0.469710173137098 0
ion Cu   0.831175441009722   0.593456161757833   0.499877460863005 0
ion Cu   0.922153224255255   0.089983527100010   0.510665203178808 0
ion Cu   0.661799502832123   0.410770824449583   0.485185408471421 0
ion Se   0.206852958055083   0.143319115638979   0.487323467582203 0
ion Se   0.426991935424275   0.326498343091964   0.514702697308752 0
ion Se   0.329971883692805   0.857626365140477   0.502619251163345 0
ion Se   0.067976265809582   0.653459169804383   0.495148212225678 0
ion Se   0.690834577475144   0.149792535506456   0.481274733496394 0
ion Se   0.938250824400492   0.344517976879658   0.518763575599793 0
ion Se   0.805429691189093   0.851303904498016   0.523231775195157 0
ion Se   0.551598136238259   0.650289503921206   0.467827059334973 0
ion O   0.490159175988716   0.600351941131666   0.552713133819185 0
ion O   0.217308272597115   0.895167706017268   0.444133921907260 0
ion O   0.033699255236647   0.409497233032171   0.459331209391611 0
ion O   0.269014323667928   0.074633727756370   0.558409602760947 0
ion O   0.180474122294754   0.564073255818084   0.524107844021323 0
ion O   0.429664044799675   0.914269486654098   0.442545644803402 0
ion O   0.323999887746145   0.430059990752866   0.547949835038061 0
ion O   0.067948469134282   0.058945133152060   0.478663324781263 0
ion O   0.147616323208470   0.254512810974018   0.538915367951098 0
ion O   0.349829820632591   0.266189360191253   0.444982338068924 0
ion O   0.343061201320823   0.719854574926036   0.471259541755106 0
ion O   0.102726389183488   0.767835768068938   0.549206519723251 0
ion O   0.969827207434527   0.593209229261958   0.554930913860254 0
ion O   0.739466438221093   0.927679111499413   0.451610411116701 0
ion O   0.510151712829945   0.409976738288310   0.455371976442324 0
ion O   0.780688471209381   0.104385807130104   0.556172935012840 0
ion O   0.677184742417436   0.568205709994262   0.471921423742776 0
ion O   0.930920042084521   0.935061628088641   0.532047483244375 0
ion O   0.821566555170965   0.431179697423697   0.493290392742954 0
ion O   0.572125809506053   0.073650227068601   0.498676141985933 0
ion O   0.647160631100894   0.269231510334705   0.528039846649321 0
ion O   0.907606452775289   0.230629234898222   0.462265058245050 0
ion O   0.858134963829747   0.744874616546477   0.468548054685131 0
ion O   0.606218956194774   0.771318734175470   0.502662636287766 0


# Forces in Lattice coordinates:
force Cu  -0.032628712703302   0.004070275466397  -0.000996026216509 0
force Cu  -0.006719470385992   0.043262071652248   0.005657640140328 0
force Cu  -0.036119426659580   0.062201988457019  -0.029206345279576 0
force Cu   0.062072744578964  -0.050626309979116  -0.022918911540167 0
force Cu   0.017611559276459  -0.019640769199334   0.046099574617294 0
force Cu  -0.028284777151992  -0.029411548015283   0.028809325990032 0
force Cu  -0.000829617882098   0.005127938912015  -0.020478958192228 0
force Se   0.025383409620893  -0.037000600749323   0.054306776673638 0
force Se   0.003612838383137  -0.011573880490970  -0.027563660850699 0
force Se  -0.003618657460991  -0.027766508549607   0.190832732497574 0
force Se  -0.038016312646818   0.047954442470645  -0.204696568636024 0
force Se   0.087493294440565  -0.010817848920963  -0.203598513322561 0
force Se  -0.017242814186957  -0.041019545983476   0.227672489804721 0
force Se  -0.028748871024025  -0.034808092526079   0.159319632675842 0
force Se  -0.016072298854528   0.050393465760574  -0.164187900256229 0
force O  -0.064366658457170   0.003954014191577  -0.072456169642106 0
force O   0.018095226904586   0.000125219818380   0.038064340353490 0
force O   0.048149488543604  -0.028499187487440   0.074870930348524 0
force O  -0.057445310896068   0.084096047977711  -0.127394249019936 0
force O   0.056223610340830  -0.092357232220042   0.078051722699932 0
force O   0.012517865482243  -0.002775499747957   0.009201185355042 0
force O  -0.047972468215895   0.026912861816023  -0.052278090515635 0
force O   0.008852899995849  -0.016236278798460   0.013392303935618 0
force O   0.060474582134037   0.045988671812103  -0.056106509395978 0
force O   0.042374699770557   0.042329214599899   0.088992207329255 0
force O   0.014316588709415  -0.021332931298514   0.022522227942824 0
force O  -0.008826260712020  -0.005306961310338  -0.047471823735432 0
force O  -0.013556414824594   0.030624731401605  -0.097770320129776 0
force O  -0.077885774722357  -0.007922810869644   0.038605862304077 0
force O   0.047202590477869  -0.031923331555451   0.093434006974238 0
force O  -0.002025100675340   0.011443694740503  -0.081667826036217 0
force O   0.046020589075821  -0.059525454588551   0.062212964587481 0
force O   0.041443016712677   0.028516359432516  -0.063752809710008 0
force O  -0.051535494474860   0.076059874479333  -0.072753247322374 0
force O  -0.008673500543129  -0.045138473391923   0.020246131091357 0
force O  -0.020705508705343   0.028204842599072  -0.013302274226604 0
force O   0.006673283018733   0.000114827138191   0.041387975271089 0
force O  -0.021268894952480  -0.027285763532592   0.062470178156367 0
force O  -0.018619368898640   0.005278445304910  -0.024433142268668 0

# Energy components:
   A_diel =       -0.0501456615080064
   Eewald =     5026.2588662784628468
       EH =     6638.3401114189709915
     Eloc =   -13973.7918217030764936
      Enl =      332.1391642248611333
      Exc =     -340.7101249720069518
 Exc_core =       99.7164107053047388
       KE =      343.7269281110466750
  MuShift =        0.0122814424113750
-------------------------------------
     Etot =    -1874.3583301555338494
       TS =        0.0311466047588426
-------------------------------------
        F =    -1874.3894767602926095
      muN =      -79.2301811912009981
-------------------------------------
        G =    -1795.1592955690916824

IonicMinimize: Iter:   0  G: -1795.159295569091682  |grad|_K:  0.000e+00  t[s]:   1187.89
IonicMinimize: Converged (|grad|_K<1.000000e-04).

#--- Lowdin population analysis ---
# oxidation-state Cu +0.418 +0.431 +0.420 +0.416 +0.434 +0.418 +0.442
# oxidation-state Se +1.641 +1.647 +1.655 +1.667 +1.660 +1.669 +1.681 +1.681
# oxidation-state O -0.516 -0.520 -0.527 -0.693 -0.439 -0.526 -0.444 -0.413 -0.563 -0.689 -0.573 -0.545 -0.536 -0.543 -0.533 -0.536 -0.453 -0.438 -0.458 -0.533 -0.548 -0.542 -0.565 -0.586


Dumping 'NbTe2.fillings' ... done
Dumping 'NbTe2.wfns' ... done
Dumping 'NbTe2.fluidState' ... done
Dumping 'NbTe2.eigenvals' ... done
End date and time: Thu Jul 16 10:21:01 2020  (Duration: 0-0:19:50.40)
Done!
