
*************** JDFTx 1.5.0  ***************

Start date and time: Mon Jul  6 13:18:45 2020
Executable jdftx_gpu with command-line: -i Charged.in -o Charged.out
Running on hosts (process indices):  amax (0)
Divided in process groups (process indices):  0 (0)
gpuInit: Found compatible cuda device 0 'Tesla K80'
gpuInit: Selected device 0
Resource initialization completed at t[s]:      6.99
Run totals: 1 processes, 24 threads, 1 GPUs


Input parsed successfully to the following command list (including defaults):

basis kpoint-dependent
cache-projectors no
coords-type Lattice
core-overlap-check none
coulomb-interaction Slab 001
coulomb-truncation-embed 0 0 0.5
davidson-band-ratio 1.1
dump End State
dump-name NbTe2.$VAR
elec-cutoff 20 100
elec-eigen-algo Davidson
elec-ex-corr gga-PBE
elec-smearing Gauss 0.0073499
electronic-minimize  \
	dirUpdateScheme      FletcherReeves \
	linminMethod         DirUpdateRecommended \
	nIterations          100 \
	history              15 \
	knormThreshold       0 \
	energyDiffThreshold  1e-08 \
	nEnergyDiff          2 \
	alphaTstart          1 \
	alphaTmin            1e-10 \
	updateTestStepSize   yes \
	alphaTreduceFactor   0.1 \
	alphaTincreaseFactor 3 \
	nAlphaAdjustMax      3 \
	wolfeEnergy          0.0001 \
	wolfeGradient        0.9 \
	fdTest               no
electronic-scf  \
	nIterations	500 \
	energyDiffThreshold	1e-08 \
	residualThreshold	1e-07 \
	mixFraction	0.5 \
	qMetric	0.8 \
	history	10 \
	nEigSteps	2 \
	eigDiffThreshold	1e-08 \
	mixedVariable	Density \
	qKerker	0.8 \
	qKappa	-1 \
	verbose	no \
	mixFractionMag	1.5
exchange-regularization WignerSeitzTruncated
fluid LinearPCM 298.000000 1.013250
fluid-anion F- 1 MeanFieldLJ \
	epsBulk 1 \
	pMol 0 \
	epsInf 1 \
	Pvap 0 \
	sigmaBulk 0 \
	Rvdw 2.24877 \
	Res 0 \
	tauNuc 343133
fluid-cation Na+ 1 MeanFieldLJ \
	epsBulk 1 \
	pMol 0 \
	epsInf 1 \
	Pvap 0 \
	sigmaBulk 0 \
	Rvdw 2.19208 \
	Res 0 \
	tauNuc 343133
fluid-ex-corr lda-TF lda-PZ
fluid-gummel-loop 10 1.000000e-05
fluid-minimize  \
	dirUpdateScheme      PolakRibiere \
	linminMethod         DirUpdateRecommended \
	nIterations          400 \
	history              15 \
	knormThreshold       1e-11 \
	energyDiffThreshold  0 \
	nEnergyDiff          2 \
	alphaTstart          1 \
	alphaTmin            1e-10 \
	updateTestStepSize   yes \
	alphaTreduceFactor   0.1 \
	alphaTincreaseFactor 3 \
	nAlphaAdjustMax      6 \
	wolfeEnergy          0.0001 \
	wolfeGradient        0.9 \
	fdTest               no
fluid-solvent H2O 55.338 ScalarEOS \
	epsBulk 78.4 \
	pMol 0.92466 \
	epsInf 1.77 \
	Pvap 1.06736e-10 \
	sigmaBulk 4.62e-05 \
	Rvdw 2.61727 \
	Res 1.42 \
	tauNuc 343133 \
	poleEl 15 7 1
forces-output-coords Positions
initial-state NbTe2.$VAR
ion Fe   0.443593097077793   0.268152485695685   0.496257617428186 0
ion Fe   0.943593097077793   0.268152485695685   0.496257617428186 0
ion Fe   0.389824010007845   0.571333191039078   0.496408581885079 0
ion Fe   0.889824010007845   0.571333191039078   0.496408581885079 0
ion Fe   0.345096594904008   0.875703133669953   0.504207358388182 0
ion Fe   0.845096594904008   0.875703133669953   0.504207358388182 0
ion Fe   0.291379679768419   0.178827257460754   0.504163534924290 0
ion Fe   0.791379679768419   0.178827257460754   0.504163534924290 0
ion Fe   0.041382611295849   0.678819965894555   0.496459378337488 0
ion Fe   0.541382611295849   0.678819965894555   0.496459378337488 0
ion Fe   0.095096555859223   0.375700529830229   0.496381534050826 0
ion Fe   0.595096555859223   0.375700529830229   0.496381534050826 0
ion Fe   0.139856959268165   0.071312212572021   0.504284244150711 0
ion Fe   0.639856959268165   0.071312212572021   0.504284244150711 0
ion Fe   0.193545927880919   0.768115789023632   0.504302403832356 0
ion Fe   0.693545927880919   0.768115789023632   0.504302403832356 0
ion S   0.492434441037722   0.473423431538421   0.567189044399937 0
ion S   0.992434441037722   0.473423431538421   0.567189044399937 0
ion S   0.392198712902455   0.081532018633743   0.572051686650139 0
ion S   0.892198712902455   0.081532018633743   0.572051686650139 0
ion S   0.342788801650252   0.365652612121885   0.428422866310662 0
ion S   0.842788801650252   0.365652612121885   0.428422866310662 0
ion S   0.296441107843432   0.674072035999459   0.572137107556185 0
ion S   0.796441107843432   0.674072035999459   0.572137107556185 0
ion S   0.242433550652833   0.973412474323702   0.433449244808254 0
ion S   0.742433550652833   0.973412474323702   0.433449244808254 0
ion S   0.046498786129616   0.173914427324847   0.428506213739666 0
ion S   0.546498786129616   0.173914427324847   0.428506213739666 0
ion S   0.092830913086918   0.865614028336155   0.572215896712265 0
ion S   0.592830913086918   0.865614028336155   0.572215896712265 0
ion S   0.142104190923536   0.581564672972591   0.428483660570437 0
ion S   0.642104190923536   0.581564672972591   0.428483660570437 0
ion S   0.188553013437482   0.273065060399839   0.572068202951332 0
ion S   0.688553013437482   0.273065060399839   0.572068202951332 0
ion S   0.438525087621706   0.772942673163446   0.428540136251348 0
ion S   0.938525087621706   0.772942673163446   0.428540136251348 0
ion-species GBRV/$ID_pbe.uspp
ion-width Ecut
ionic-minimize  \
	dirUpdateScheme      L-BFGS \
	linminMethod         DirUpdateRecommended \
	nIterations          0 \
	history              15 \
	knormThreshold       0.0001 \
	energyDiffThreshold  1e-06 \
	nEnergyDiff          2 \
	alphaTstart          1 \
	alphaTmin            1e-10 \
	updateTestStepSize   yes \
	alphaTreduceFactor   0.1 \
	alphaTincreaseFactor 3 \
	nAlphaAdjustMax      3 \
	wolfeEnergy          0.0001 \
	wolfeGradient        0.9 \
	fdTest               no
kpoint   0.000000000000   0.000000000000   0.000000000000  1.00000000000000
kpoint-folding 2 4 1 
latt-move-scale 1 1 1
latt-scale 1 1 1 
lattice Triclinic 29.7807 14.8832 33.1356 90 90 90
lattice-minimize  \
	dirUpdateScheme      L-BFGS \
	linminMethod         DirUpdateRecommended \
	nIterations          0 \
	history              15 \
	knormThreshold       0 \
	energyDiffThreshold  1e-06 \
	nEnergyDiff          2 \
	alphaTstart          1 \
	alphaTmin            1e-10 \
	updateTestStepSize   yes \
	alphaTreduceFactor   0.1 \
	alphaTincreaseFactor 3 \
	nAlphaAdjustMax      3 \
	wolfeEnergy          0.0001 \
	wolfeGradient        0.9 \
	fdTest               no
lcao-params -1 1e-06 0.0073499
pcm-variant CANDLE
spintype no-spin
subspace-rotation-factor 1 yes
symmetries automatic
symmetry-threshold 0.0001
target-mu -0.24475 no




---------- Setting up symmetries ----------

Found 8 point-group symmetries of the bravais lattice
Found 2 space-group symmetries with basis
Applied RMS atom displacement 2.0247e-15 bohrs to make symmetries exact.

---------- Initializing the Grid ----------
R = 
[    29.7807          0          0  ]
[          0    14.8832          0  ]
[          0          0    33.1356  ]
unit cell volume = 14686.7
G =
[   0.210982          0          0  ]
[          0   0.422167          0  ]
[          0          0    0.18962  ]
Minimum fftbox size, Smin = [  136  68  152  ]
Chosen fftbox size, S = [  140  70  160  ]

---------- Initializing tighter grid for wavefunction operations ----------
R = 
[    29.7807          0          0  ]
[          0    14.8832          0  ]
[          0          0    33.1356  ]
unit cell volume = 14686.7
G =
[   0.210982          0          0  ]
[          0   0.422167          0  ]
[          0          0    0.18962  ]
Minimum fftbox size, Smin = [  120  60  136  ]
Chosen fftbox size, S = [  120  60  140  ]

---------- Exchange Correlation functional ----------
Initalized PBE GGA exchange.
Initalized PBE GGA correlation.

---------- Setting up pseudopotentials ----------
Width of ionic core gaussian charges (only for fluid interactions / plotting) set to 0.397384

Reading pseudopotential file '/home/guoxy/vasp/jdftx-1.5.0/build/pseudopotentials/GBRV/fe_pbe.uspp':
  Title: Fe.  Created by USPP 7.3.6 on 15-6-15
  Reference state energy: -124.316937.  16 valence electrons in orbitals:
    |300>  occupation: 2  eigenvalue: -4.008817
    |310>  occupation: 6  eigenvalue: -2.753096
    |320>  occupation: 5  eigenvalue: -0.791264
    |400>  occupation: 2  eigenvalue: -0.516384
    |410>  occupation: 0  eigenvalue: -0.312222
  lMax: 2  lLocal: 3  QijEcut: 6
  6 projectors sampled on a log grid with 607 points:
    l: 0  eig: -4.008819  rCut: 1.55
    l: 0  eig: -0.516386  rCut: 1.55
    l: 1  eig: -2.753096  rCut: 1.55
    l: 1  eig: -0.312226  rCut: 1.55
    l: 2  eig: -0.791264  rCut: 1.65
    l: 2  eig: -0.450000  rCut: 1.65
  Partial core density with radius 0.65
  Transforming core density to a uniform radial grid of dG=0.02 with 1296 points.
  Transforming local potential to a uniform radial grid of dG=0.02 with 1296 points.
  Transforming nonlocal projectors to a uniform radial grid of dG=0.02 with 432 points.
  Transforming density augmentations to a uniform radial grid of dG=0.02 with 1296 points.
  Transforming atomic orbitals to a uniform radial grid of dG=0.02 with 432 points.
  Core radius for overlap checks: 1.65 bohrs.

Reading pseudopotential file '/home/guoxy/vasp/jdftx-1.5.0/build/pseudopotentials/GBRV/s_pbe.uspp':
  Title: S.  Created by USPP 7.3.6 on 1-4-15
  Reference state energy: -11.898476.  6 valence electrons in orbitals:
    |300>  occupation: 2  eigenvalue: -0.634167
    |310>  occupation: 4  eigenvalue: -0.257568
  lMax: 2  lLocal: 3  QijEcut: 6
  6 projectors sampled on a log grid with 635 points:
    l: 0  eig: -0.634161  rCut: 1.5
    l: 0  eig: 1.500000  rCut: 1.5
    l: 1  eig: -0.257567  rCut: 1.5
    l: 1  eig: 1.500000  rCut: 1.5
    l: 2  eig: -1.000000  rCut: 1.5
    l: 2  eig: 1.500000  rCut: 1.5
  Partial core density with radius 1.15
  Transforming core density to a uniform radial grid of dG=0.02 with 1296 points.
  Transforming local potential to a uniform radial grid of dG=0.02 with 1296 points.
  Transforming nonlocal projectors to a uniform radial grid of dG=0.02 with 432 points.
  Transforming density augmentations to a uniform radial grid of dG=0.02 with 1296 points.
  Transforming atomic orbitals to a uniform radial grid of dG=0.02 with 432 points.
  Core radius for overlap checks: 1.50 bohrs.

Initialized 2 species with 36 total atoms.

Folded 1 k-points by 2x4x1 to 8 k-points.

---------- Setting up k-points, bands, fillings ----------
Adding inversion symmetry to k-mesh for non-inversion-symmetric unit cell.
Reduced to 6 k-points under symmetry. 
Computing the number of bands and number of electrons
Reading initial fillings from file NbTe2.fillings.
nElectrons: 376.000000   nBands: 288   nStates: 6

----- Setting up reduced wavefunction bases (one per k-point) -----
average nbasis = 62744.875 , ideal nbasis = 62742.904

---------- Setting up coulomb interaction ----------
Fluid mode embedding: using embedded box, but periodic Coulomb kernel.
(Fluid response is responsible for (approximate) separation between periodic images.)
Setting up double-sized grid for truncated Coulomb potentials:
R = 
[    29.7807          0          0  ]
[          0    14.8832          0  ]
[          0          0    66.2712  ]
unit cell volume = 29373.5
G =
[   0.210982          0          0  ]
[          0   0.422167          0  ]
[          0          0  0.0948102  ]
Chosen fftbox size, S = [  140  70  320  ]
Integer grid location selected as the embedding center:
   Grid: [  0  0  80  ]
   Lattice: [  0  0  0.5  ]
   Cartesian: [  0  0  16.5678  ]
Constructing Wigner-Seitz cell: 6 faces (6 quadrilaterals, 0 hexagons)
Range-separation parameter for embedded mesh potentials due to point charges: 0.581854 bohrs.

Initializing van der Waals corrections
	NOTE: vdW corrections apply only for interactions with fluid.
	Fe:  C6:  187.33 Eh-a0^6  R0: 2.952 a0
	 S:  C6:   96.61 Eh-a0^6  R0: 3.180 a0

---------- Setting up ewald sum ----------
Optimum gaussian width for ewald sums = 6.773995 bohr.
Real space sum over 585 unit cells with max indices [  4  6  2  ]
Reciprocal space sum over 6171 terms with max indices [  8  5  16  ]

---------- Allocating electronic variables ----------
Initializing wave functions:  reading from 'NbTe2.wfns'
----- createFluidSolver() ----- (Fluid-side solver setup)
   Initializing fluid molecule 'H2O'
     Initializing site 'O'
       Electron density: proportional to exp(-r/0.36935)*erfc((r-0.51523)/0.36823) with norm 6.826
       Charge density: gaussian nuclear width 0.478731 with net site charge 0.826
       Polarizability: cuspless exponential with width 0.32 and norm 3.73
       Hard sphere radius: 2.57003 bohrs
       Positions in reference frame:
         [ +0.000000 +0.000000 +0.000000 ]
     Initializing site 'H'
       Electron density: proportional to exp(-r/0.34641)*erfc((r-0)/0.390882) with norm 0.587
       Charge density: gaussian nuclear width 0.377945 with net site charge -0.413
       Polarizability: cuspless exponential with width 0.39 and norm 3.3
       Positions in reference frame:
         [ +0.000000 -1.441945 +1.122523 ]
         [ +0.000000 +1.441945 +1.122523 ]
     Net charge: 0   dipole magnitude: 0.927204
     Initializing spherical shell mfKernel with radius 2.61727 Bohr
     deltaS corrections:
       site 'O': -7.54299
       site 'H': -6.83917
   Initializing fluid molecule 'Na+'
     Initializing site 'Na'
       Electron density: proportional to exp(-r/0.19682)*erfc((r-0.71491)/0.41314) with norm 8.1383
       Charge density: gaussian nuclear width 0.365347 with net site charge -1
       Hard sphere radius: 1.86327 bohrs
       Positions in reference frame:
         [ +0.000000 +0.000000 +0.000000 ]
     Net charge: -1   dipole magnitude: 0
     Initializing gaussian mfKernel with width: 1.55004 Bohr
     deltaS corrections:
       site 'Na': -22.3555
   Initializing fluid molecule 'F-'
     Initializing site 'F'
       Electron density: proportional to exp(-r/0.38886)*erfc((r-0)/0.438782) with norm 8
       Charge density: gaussian nuclear width 0.374796 with net site charge 1
       Hard sphere radius: 2.39995 bohrs
       Positions in reference frame:
         [ +0.000000 +0.000000 +0.000000 ]
     Net charge: 1   dipole magnitude: 0
     Initializing gaussian mfKernel with width: 1.59012 Bohr
     deltaS corrections:
       site 'F': -9.04335

Correction to mu due to finite nuclear width = -0.0127008
   Cavity determined by nc: 0.00142 and sigma: 0.707107
   Nonlocal vdW cavity from gaussian model electron density with norm = 8 and sigma = 0.993594 bohr
   Charge asymmetry in cavity with sensitivity pCavity = 36.5 e-bohr/Eh
   Electrostatic cavity expanded by eta = 1.46 bohrs
   Weighted density cavitation model constrained by Nbulk: 0.0049383 bohr^-3, Pvap: 3.14029 kPa, Rvdw: 2.61727 bohr and sigmaBulk: 4.62e-05 Eh/bohr^2 at T: 298 K.
   Weighted density dispersion model using vdW pair potentials with single solvent site with sqrtC6eff: 0.77 SI.
Reading fluid state from 'NbTe2.fluidState'


---- Citations for features of the code used in this run ----

   Software package:
      R. Sundararaman, K. Letchworth-Weaver, K.A. Schwarz, D. Gunceler, Y. Ozhabes and T.A. Arias, 'JDFTx: software for joint density-functional theory', SoftwareX 6, 278 (2017)

   gga-PBE exchange-correlation functional:
      J.P. Perdew, K. Burke and M. Ernzerhof, Phys. Rev. Lett. 77, 3865 (1996)

   Pseudopotentials:
      KF Garrity, JW Bennett, KM Rabe and D Vanderbilt, Comput. Mater. Sci. 81, 446 (2014)

   Truncated Coulomb potentials:
      R. Sundararaman and T.A. Arias, Phys. Rev. B 87, 165122 (2013)

   Van der Waals correction pair-potentials:
      S. Grimme, J. Comput. Chem. 27, 1787 (2006)

   Charge-asymmetric nonlocally-determined local-electric (CANDLE) solvation model:
      R. Sundararaman and W.A. Goddard III, J. Chem. Phys. 142, 064107 (2015)

   Grand-canonical (fixed-potential) DFT:
      R. Sundararaman, W. A. Goddard III and T. A. Arias, J. Chem. Phys. 146, 114104 (2017)

This list may not be complete. Please suggest additional citations or
report any other bugs at https://github.com/shankar1729/jdftx/issues

Initialization completed successfully at t[s]:     26.40

Shifting auxilliary hamiltonian by -0.072662 to set nElectrons=376.000000
	Linear fluid (dielectric constant: 78.4, screening length: 5.74355 Bohr) occupying 0.774463 of unit cell:	Completed after 0 iterations at t[s]:     35.21

-------- Electronic minimization -----------
Will mix electronic density at each iteration.
	FillingsUpdate:  mu: -0.244750400  nElectrons: 376.000000
	Linear fluid (dielectric constant: 78.4, screening length: 5.74355 Bohr) occupying 0.774463 of unit cell:	Completed after 0 iterations at t[s]:     44.64
	FillingsUpdate:  mu: -0.244750400  nElectrons: 304.368668
	Linear fluid (dielectric constant: 78.4, screening length: 5.74355 Bohr) occupying 0.779512 of unit cell:	Completed after 21 iterations at t[s]:    115.38
SCF: Cycle:  0   G: -1930.369887171646724   dG: +1.740e+02   |Residual|: 4.447e+00   |deigs|: 2.281e-06  t[s]:    117.09
	Linear fluid (dielectric constant: 78.4, screening length: 5.74355 Bohr) occupying 0.752146 of unit cell:	Completed after 18 iterations at t[s]:    119.05
	FillingsUpdate:  mu: -0.244750400  nElectrons: 457.705852
	Linear fluid (dielectric constant: 78.4, screening length: 5.74355 Bohr) occupying 0.837909 of unit cell:	Completed after 22 iterations at t[s]:    193.66
SCF: Cycle:  1   G: -1861.140704858611798   dG: +6.923e+01   |Residual|: 1.051e+01   |deigs|: 6.227e-01  t[s]:    195.20
	Linear fluid (dielectric constant: 78.4, screening length: 5.74355 Bohr) occupying 0.752770 of unit cell:	Completed after 17 iterations at t[s]:    196.99
	FillingsUpdate:  mu: -0.244750400  nElectrons: 447.999913
	Linear fluid (dielectric constant: 78.4, screening length: 5.74355 Bohr) occupying 0.834921 of unit cell:	Completed after 21 iterations at t[s]:    271.88
SCF: Cycle:  2   G: -1966.390147369480928   dG: -1.052e+02   |Residual|: 6.019e+00   |deigs|: 3.928e-01  t[s]:    273.59
	Linear fluid (dielectric constant: 78.4, screening length: 5.74355 Bohr) occupying 0.761659 of unit cell:	Completed after 17 iterations at t[s]:    275.44
	FillingsUpdate:  mu: -0.244750400  nElectrons: 366.614126
	Linear fluid (dielectric constant: 78.4, screening length: 5.74355 Bohr) occupying 0.779141 of unit cell:	Completed after 18 iterations at t[s]:    349.44
SCF: Cycle:  3   G: -2103.444241649395281   dG: -1.371e+02   |Residual|: 5.788e-01   |deigs|: 1.893e-01  t[s]:    351.39
	Linear fluid (dielectric constant: 78.4, screening length: 5.74355 Bohr) occupying 0.758675 of unit cell:	Completed after 15 iterations at t[s]:    353.14
	FillingsUpdate:  mu: -0.244750400  nElectrons: 363.847673
	Linear fluid (dielectric constant: 78.4, screening length: 5.74355 Bohr) occupying 0.778991 of unit cell:	Completed after 18 iterations at t[s]:    427.14
SCF: Cycle:  4   G: -2101.583804610811058   dG: +1.860e+00   |Residual|: 8.105e-01   |deigs|: 7.147e-03  t[s]:    428.69
	Linear fluid (dielectric constant: 78.4, screening length: 5.74355 Bohr) occupying 0.753410 of unit cell:	Completed after 15 iterations at t[s]:    430.25
	FillingsUpdate:  mu: -0.244750400  nElectrons: 383.010701
	Linear fluid (dielectric constant: 78.4, screening length: 5.74355 Bohr) occupying 0.834813 of unit cell:	Completed after 28 iterations at t[s]:    504.25
SCF: Cycle:  5   G: -2099.323940428075275   dG: +2.260e+00   |Residual|: 1.122e+00   |deigs|: 2.962e-02  t[s]:    506.10
	Linear fluid (dielectric constant: 78.4, screening length: 5.74355 Bohr) occupying 0.750890 of unit cell:	Completed after 16 iterations at t[s]:    507.82
	FillingsUpdate:  mu: -0.244750400  nElectrons: 383.080210
	Linear fluid (dielectric constant: 78.4, screening length: 5.74355 Bohr) occupying 0.834811 of unit cell:	Completed after 27 iterations at t[s]:    582.11
SCF: Cycle:  6   G: -2099.741746469023838   dG: -4.178e-01   |Residual|: 1.073e+00   |deigs|: 1.740e-03  t[s]:    583.77
	Linear fluid (dielectric constant: 78.4, screening length: 5.74355 Bohr) occupying 0.750453 of unit cell:	Completed after 16 iterations at t[s]:    585.53
	FillingsUpdate:  mu: -0.244750400  nElectrons: 382.179207
	Linear fluid (dielectric constant: 78.4, screening length: 5.74355 Bohr) occupying 0.833173 of unit cell:	Completed after 28 iterations at t[s]:    660.24
SCF: Cycle:  7   G: -2100.423191369058713   dG: -6.814e-01   |Residual|: 9.869e-01   |deigs|: 1.333e-03  t[s]:    661.97
	Linear fluid (dielectric constant: 78.4, screening length: 5.74355 Bohr) occupying 0.746095 of unit cell:	Completed after 16 iterations at t[s]:    663.88
	FillingsUpdate:  mu: -0.244750400  nElectrons: 374.170155
	Linear fluid (dielectric constant: 78.4, screening length: 5.74355 Bohr) occupying 0.779192 of unit cell:	Completed after 17 iterations at t[s]:    737.59
SCF: Cycle:  8   G: -2104.331447504024709   dG: -3.908e+00   |Residual|: 2.375e-01   |deigs|: 1.176e-02  t[s]:    739.12
	Linear fluid (dielectric constant: 78.4, screening length: 5.74355 Bohr) occupying 0.745718 of unit cell:	Completed after 13 iterations at t[s]:    740.57
	FillingsUpdate:  mu: -0.244750400  nElectrons: 374.497651
	Linear fluid (dielectric constant: 78.4, screening length: 5.74355 Bohr) occupying 0.779217 of unit cell:	Completed after 17 iterations at t[s]:    814.53
SCF: Cycle:  9   G: -2104.305362345111917   dG: +2.609e-02   |Residual|: 2.397e-01   |deigs|: 7.245e-04  t[s]:    816.07
	Linear fluid (dielectric constant: 78.4, screening length: 5.74355 Bohr) occupying 0.744328 of unit cell:	Completed after 13 iterations at t[s]:    817.61
	FillingsUpdate:  mu: -0.244750400  nElectrons: 377.853315
	Linear fluid (dielectric constant: 78.4, screening length: 5.74355 Bohr) occupying 0.797600 of unit cell:	Completed after 19 iterations at t[s]:    893.36
SCF: Cycle: 10   G: -2103.219712908670317   dG: +1.086e+00   |Residual|: 5.330e-01   |deigs|: 4.803e-03  t[s]:    895.44
	Linear fluid (dielectric constant: 78.4, screening length: 5.74355 Bohr) occupying 0.740913 of unit cell:	Completed after 13 iterations at t[s]:    897.09
	FillingsUpdate:  mu: -0.244750400  nElectrons: 375.111957
	Linear fluid (dielectric constant: 78.4, screening length: 5.74355 Bohr) occupying 0.779305 of unit cell:	Completed after 19 iterations at t[s]:    970.99
SCF: Cycle: 11   G: -2104.069630947120913   dG: -8.499e-01   |Residual|: 3.653e-01   |deigs|: 4.338e-03  t[s]:    972.75
	Linear fluid (dielectric constant: 78.4, screening length: 5.74355 Bohr) occupying 0.739102 of unit cell:	Completed after 13 iterations at t[s]:    974.27
	FillingsUpdate:  mu: -0.244750400  nElectrons: 374.225517
	Linear fluid (dielectric constant: 78.4, screening length: 5.74355 Bohr) occupying 0.779325 of unit cell:	Completed after 15 iterations at t[s]:   1047.19
SCF: Cycle: 12   G: -2104.391877324902453   dG: -3.222e-01   |Residual|: 2.003e-01   |deigs|: 1.976e-03  t[s]:   1048.92
	Linear fluid (dielectric constant: 78.4, screening length: 5.74355 Bohr) occupying 0.737905 of unit cell:	Completed after 11 iterations at t[s]:   1050.35
	FillingsUpdate:  mu: -0.244750400  nElectrons: 371.097171
	Linear fluid (dielectric constant: 78.4, screening length: 5.74355 Bohr) occupying 0.779145 of unit cell:	Completed after 19 iterations at t[s]:   1129.44
SCF: Cycle: 13   G: -2104.245418359801533   dG: +1.465e-01   |Residual|: 2.296e-01   |deigs|: 5.174e-03  t[s]:   1131.24
	Linear fluid (dielectric constant: 78.4, screening length: 5.74355 Bohr) occupying 0.735312 of unit cell:	Completed after 13 iterations at t[s]:   1132.86
	FillingsUpdate:  mu: -0.244750400  nElectrons: 371.205361
	Linear fluid (dielectric constant: 78.4, screening length: 5.74355 Bohr) occupying 0.779242 of unit cell:	Completed after 19 iterations at t[s]:   1205.71
SCF: Cycle: 14   G: -2104.245993406141224   dG: -5.750e-04   |Residual|: 2.332e-01   |deigs|: 3.981e-04  t[s]:   1207.48
	Linear fluid (dielectric constant: 78.4, screening length: 5.74355 Bohr) occupying 0.735377 of unit cell:	Completed after 13 iterations at t[s]:   1209.01
	FillingsUpdate:  mu: -0.244750400  nElectrons: 370.904012
	Linear fluid (dielectric constant: 78.4, screening length: 5.74355 Bohr) occupying 0.779347 of unit cell:	Completed after 18 iterations at t[s]:   1281.57
SCF: Cycle: 15   G: -2104.251730614467760   dG: -5.737e-03   |Residual|: 2.089e-01   |deigs|: 1.148e-03  t[s]:   1283.69
	Linear fluid (dielectric constant: 78.4, screening length: 5.74355 Bohr) occupying 0.734597 of unit cell:	Completed after 13 iterations at t[s]:   1285.29
	FillingsUpdate:  mu: -0.244750400  nElectrons: 370.948463
	Linear fluid (dielectric constant: 78.4, screening length: 5.74355 Bohr) occupying 0.779394 of unit cell:	Completed after 17 iterations at t[s]:   1357.48
SCF: Cycle: 16   G: -2104.282452141448630   dG: -3.072e-02   |Residual|: 1.876e-01   |deigs|: 4.238e-04  t[s]:   1359.11
	Linear fluid (dielectric constant: 78.4, screening length: 5.74355 Bohr) occupying 0.734716 of unit cell:	Completed after 13 iterations at t[s]:   1360.63
	FillingsUpdate:  mu: -0.244750400  nElectrons: 371.156963
	Linear fluid (dielectric constant: 78.4, screening length: 5.74355 Bohr) occupying 0.779373 of unit cell:	Completed after 19 iterations at t[s]:   1433.80
SCF: Cycle: 17   G: -2104.272485299632535   dG: +9.967e-03   |Residual|: 2.130e-01   |deigs|: 7.356e-04  t[s]:   1435.51
	Linear fluid (dielectric constant: 78.4, screening length: 5.74355 Bohr) occupying 0.734077 of unit cell:	Completed after 12 iterations at t[s]:   1436.94
	FillingsUpdate:  mu: -0.244750400  nElectrons: 371.317852
	Linear fluid (dielectric constant: 78.4, screening length: 5.74355 Bohr) occupying 0.779421 of unit cell:	Completed after 17 iterations at t[s]:   1510.84
SCF: Cycle: 18   G: -2104.350855209776455   dG: -7.837e-02   |Residual|: 1.495e-01   |deigs|: 7.719e-04  t[s]:   1512.56
	Linear fluid (dielectric constant: 78.4, screening length: 5.74355 Bohr) occupying 0.735523 of unit cell:	Completed after 13 iterations at t[s]:   1514.08
	FillingsUpdate:  mu: -0.244750400  nElectrons: 371.448825
	Linear fluid (dielectric constant: 78.4, screening length: 5.74355 Bohr) occupying 0.779380 of unit cell:	Completed after 19 iterations at t[s]:   1587.69
SCF: Cycle: 19   G: -2104.181566387321709   dG: +1.693e-01   |Residual|: 2.864e-01   |deigs|: 1.526e-03  t[s]:   1589.33
	Linear fluid (dielectric constant: 78.4, screening length: 5.74355 Bohr) occupying 0.735556 of unit cell:	Completed after 13 iterations at t[s]:   1590.92
	FillingsUpdate:  mu: -0.244750400  nElectrons: 371.563345
	Linear fluid (dielectric constant: 78.4, screening length: 5.74355 Bohr) occupying 0.779400 of unit cell:	Completed after 19 iterations at t[s]:   1663.33
SCF: Cycle: 20   G: -2104.364453777483504   dG: -1.829e-01   |Residual|: 1.557e-01   |deigs|: 1.187e-03  t[s]:   1664.95
	Linear fluid (dielectric constant: 78.4, screening length: 5.74355 Bohr) occupying 0.733248 of unit cell:	Completed after 13 iterations at t[s]:   1666.50
	FillingsUpdate:  mu: -0.244750400  nElectrons: 372.248123
	Linear fluid (dielectric constant: 78.4, screening length: 5.74355 Bohr) occupying 0.779569 of unit cell:	Completed after 15 iterations at t[s]:   1740.17
SCF: Cycle: 21   G: -2104.462706753503426   dG: -9.825e-02   |Residual|: 8.605e-02   |deigs|: 1.076e-03  t[s]:   1741.71
	Linear fluid (dielectric constant: 78.4, screening length: 5.74355 Bohr) occupying 0.733034 of unit cell:	Completed after 11 iterations at t[s]:   1743.11
	FillingsUpdate:  mu: -0.244750400  nElectrons: 372.335257
	Linear fluid (dielectric constant: 78.4, screening length: 5.74355 Bohr) occupying 0.779661 of unit cell:	Completed after 17 iterations at t[s]:   1814.98
SCF: Cycle: 22   G: -2104.468015483090767   dG: -5.309e-03   |Residual|: 8.742e-02   |deigs|: 3.039e-04  t[s]:   1816.34
	Linear fluid (dielectric constant: 78.4, screening length: 5.74355 Bohr) occupying 0.732337 of unit cell:	Completed after 12 iterations at t[s]:   1817.79
	FillingsUpdate:  mu: -0.244750400  nElectrons: 372.395313
	Linear fluid (dielectric constant: 78.4, screening length: 5.74355 Bohr) occupying 0.779854 of unit cell:	Completed after 18 iterations at t[s]:   1888.24
SCF: Cycle: 23   G: -2104.441992510154705   dG: +2.602e-02   |Residual|: 1.408e-01   |deigs|: 7.069e-04  t[s]:   1889.82
	Linear fluid (dielectric constant: 78.4, screening length: 5.74355 Bohr) occupying 0.732223 of unit cell:	Completed after 13 iterations at t[s]:   1891.30
	FillingsUpdate:  mu: -0.244750400  nElectrons: 372.088699
	Linear fluid (dielectric constant: 78.4, screening length: 5.74355 Bohr) occupying 0.780013 of unit cell:	Completed after 17 iterations at t[s]:   1962.36
SCF: Cycle: 24   G: -2104.452774273863724   dG: -1.078e-02   |Residual|: 9.912e-02   |deigs|: 9.469e-04  t[s]:   1964.21
	Linear fluid (dielectric constant: 78.4, screening length: 5.74355 Bohr) occupying 0.732548 of unit cell:	Completed after 13 iterations at t[s]:   1965.82
	FillingsUpdate:  mu: -0.244750400  nElectrons: 372.619221
	Linear fluid (dielectric constant: 78.4, screening length: 5.74355 Bohr) occupying 0.781121 of unit cell:	Completed after 18 iterations at t[s]:   2036.47
SCF: Cycle: 25   G: -2104.500886688215815   dG: -4.811e-02   |Residual|: 7.093e-02   |deigs|: 2.471e-03  t[s]:   2038.26
	Linear fluid (dielectric constant: 78.4, screening length: 5.74355 Bohr) occupying 0.746324 of unit cell:	Completed after 17 iterations at t[s]:   2040.23
	FillingsUpdate:  mu: -0.244750400  nElectrons: 371.788861
	Linear fluid (dielectric constant: 78.4, screening length: 5.74355 Bohr) occupying 0.781541 of unit cell:	Completed after 19 iterations at t[s]:   2112.11
SCF: Cycle: 26   G: -2104.450093428484251   dG: +5.079e-02   |Residual|: 1.034e-01   |deigs|: 3.711e-03  t[s]:   2113.54
	Linear fluid (dielectric constant: 78.4, screening length: 5.74355 Bohr) occupying 0.747939 of unit cell:	Completed after 17 iterations at t[s]:   2115.21
	FillingsUpdate:  mu: -0.244750400  nElectrons: 372.174248
	Linear fluid (dielectric constant: 78.4, screening length: 5.74355 Bohr) occupying 0.781769 of unit cell:	Completed after 17 iterations at t[s]:   2185.25
SCF: Cycle: 27   G: -2104.486935680774877   dG: -3.684e-02   |Residual|: 7.492e-02   |deigs|: 3.385e-03  t[s]:   2186.71
	Linear fluid (dielectric constant: 78.4, screening length: 5.74355 Bohr) occupying 0.749382 of unit cell:	Completed after 16 iterations at t[s]:   2188.50
	FillingsUpdate:  mu: -0.244750400  nElectrons: 372.412133
	Linear fluid (dielectric constant: 78.4, screening length: 5.74355 Bohr) occupying 0.781688 of unit cell:	Completed after 17 iterations at t[s]:   2260.53
SCF: Cycle: 28   G: -2104.496867528023358   dG: -9.932e-03   |Residual|: 7.203e-02   |deigs|: 8.334e-04  t[s]:   2262.21
	Linear fluid (dielectric constant: 78.4, screening length: 5.74355 Bohr) occupying 0.757750 of unit cell:	Completed after 16 iterations at t[s]:   2263.92
	FillingsUpdate:  mu: -0.244750400  nElectrons: 374.758222
	Linear fluid (dielectric constant: 78.4, screening length: 5.74355 Bohr) occupying 0.782220 of unit cell:	Completed after 19 iterations at t[s]:   2335.00
SCF: Cycle: 29   G: -2104.369873267951334   dG: +1.270e-01   |Residual|: 1.619e-01   |deigs|: 6.548e-03  t[s]:   2336.29
	Linear fluid (dielectric constant: 78.4, screening length: 5.74355 Bohr) occupying 0.758469 of unit cell:	Completed after 19 iterations at t[s]:   2338.23
	FillingsUpdate:  mu: -0.244750400  nElectrons: 374.465373
	Linear fluid (dielectric constant: 78.4, screening length: 5.74355 Bohr) occupying 0.782178 of unit cell:	Completed after 19 iterations at t[s]:   2412.22
SCF: Cycle: 30   G: -2104.417839258280765   dG: -4.797e-02   |Residual|: 1.296e-01   |deigs|: 1.434e-03  t[s]:   2413.99
	Linear fluid (dielectric constant: 78.4, screening length: 5.74355 Bohr) occupying 0.755041 of unit cell:	Completed after 17 iterations at t[s]:   2415.83
	FillingsUpdate:  mu: -0.244750400  nElectrons: 373.636403
	Linear fluid (dielectric constant: 78.4, screening length: 5.74355 Bohr) occupying 0.781687 of unit cell:	Completed after 18 iterations at t[s]:   2487.57
SCF: Cycle: 31   G: -2104.487433673302803   dG: -6.959e-02   |Residual|: 9.011e-02   |deigs|: 4.635e-03  t[s]:   2489.19
	Linear fluid (dielectric constant: 78.4, screening length: 5.74355 Bohr) occupying 0.752635 of unit cell:	Completed after 17 iterations at t[s]:   2490.97
	FillingsUpdate:  mu: -0.244750400  nElectrons: 373.636951
	Linear fluid (dielectric constant: 78.4, screening length: 5.74355 Bohr) occupying 0.781332 of unit cell:	Completed after 14 iterations at t[s]:   2563.46
SCF: Cycle: 32   G: -2104.509812596246320   dG: -2.238e-02   |Residual|: 3.187e-02   |deigs|: 1.640e-03  t[s]:   2565.16
	Linear fluid (dielectric constant: 78.4, screening length: 5.74355 Bohr) occupying 0.751454 of unit cell:	Completed after 13 iterations at t[s]:   2566.64
	FillingsUpdate:  mu: -0.244750400  nElectrons: 372.333560
	Linear fluid (dielectric constant: 78.4, screening length: 5.74355 Bohr) occupying 0.781271 of unit cell:	Completed after 16 iterations at t[s]:   2638.74
SCF: Cycle: 33   G: -2104.491267174552377   dG: +1.855e-02   |Residual|: 6.956e-02   |deigs|: 3.284e-03  t[s]:   2640.64
	Linear fluid (dielectric constant: 78.4, screening length: 5.74355 Bohr) occupying 0.756741 of unit cell:	Completed after 14 iterations at t[s]:   2642.24
	FillingsUpdate:  mu: -0.244750400  nElectrons: 372.857913
	Linear fluid (dielectric constant: 78.4, screening length: 5.74355 Bohr) occupying 0.781323 of unit cell:	Completed after 16 iterations at t[s]:   2714.37
SCF: Cycle: 34   G: -2104.511992783425740   dG: -2.073e-02   |Residual|: 4.897e-02   |deigs|: 2.134e-03  t[s]:   2716.15
	Linear fluid (dielectric constant: 78.4, screening length: 5.74355 Bohr) occupying 0.757613 of unit cell:	Completed after 14 iterations at t[s]:   2717.81
	FillingsUpdate:  mu: -0.244750400  nElectrons: 372.964984
	Linear fluid (dielectric constant: 78.4, screening length: 5.74355 Bohr) occupying 0.781304 of unit cell:	Completed after 14 iterations at t[s]:   2790.24
SCF: Cycle: 35   G: -2104.517282313053784   dG: -5.290e-03   |Residual|: 2.672e-02   |deigs|: 1.025e-03  t[s]:   2791.91
	Linear fluid (dielectric constant: 78.4, screening length: 5.74355 Bohr) occupying 0.766049 of unit cell:	Completed after 14 iterations at t[s]:   2793.54
	FillingsUpdate:  mu: -0.244750400  nElectrons: 373.237312
	Linear fluid (dielectric constant: 78.4, screening length: 5.74355 Bohr) occupying 0.781354 of unit cell:	Completed after 15 iterations at t[s]:   2866.65
SCF: Cycle: 36   G: -2104.513616029053992   dG: +3.666e-03   |Residual|: 4.395e-02   |deigs|: 1.213e-03  t[s]:   2868.40
	Linear fluid (dielectric constant: 78.4, screening length: 5.74355 Bohr) occupying 0.761905 of unit cell:	Completed after 14 iterations at t[s]:   2870.03
	FillingsUpdate:  mu: -0.244750400  nElectrons: 373.101885
	Linear fluid (dielectric constant: 78.4, screening length: 5.74355 Bohr) occupying 0.781333 of unit cell:	Completed after 16 iterations at t[s]:   2943.72
SCF: Cycle: 37   G: -2104.515539510713552   dG: -1.923e-03   |Residual|: 3.711e-02   |deigs|: 6.811e-04  t[s]:   2945.34
	Linear fluid (dielectric constant: 78.4, screening length: 5.74355 Bohr) occupying 0.771043 of unit cell:	Completed after 11 iterations at t[s]:   2946.70
	FillingsUpdate:  mu: -0.244750400  nElectrons: 373.570425
	Linear fluid (dielectric constant: 78.4, screening length: 5.74355 Bohr) occupying 0.781646 of unit cell:	Completed after 16 iterations at t[s]:   3021.59
SCF: Cycle: 38   G: -2104.507292041831533   dG: +8.247e-03   |Residual|: 4.332e-02   |deigs|: 1.956e-03  t[s]:   3023.19
	Linear fluid (dielectric constant: 78.4, screening length: 5.74355 Bohr) occupying 0.775009 of unit cell:	Completed after 16 iterations at t[s]:   3024.95
	FillingsUpdate:  mu: -0.244750400  nElectrons: 373.597667
	Linear fluid (dielectric constant: 78.4, screening length: 5.74355 Bohr) occupying 0.781635 of unit cell:	Completed after 15 iterations at t[s]:   3099.10
SCF: Cycle: 39   G: -2104.505905089595672   dG: +1.387e-03   |Residual|: 4.652e-02   |deigs|: 6.185e-04  t[s]:   3100.91
	Linear fluid (dielectric constant: 78.4, screening length: 5.74355 Bohr) occupying 0.778417 of unit cell:	Completed after 16 iterations at t[s]:   3102.68
	FillingsUpdate:  mu: -0.244750400  nElectrons: 373.468949
	Linear fluid (dielectric constant: 78.4, screening length: 5.74355 Bohr) occupying 0.781575 of unit cell:	Completed after 13 iterations at t[s]:   3175.21
SCF: Cycle: 40   G: -2104.512733476964968   dG: -6.828e-03   |Residual|: 2.995e-02   |deigs|: 1.451e-03  t[s]:   3176.93
	Linear fluid (dielectric constant: 78.4, screening length: 5.74355 Bohr) occupying 0.778690 of unit cell:	Completed after 14 iterations at t[s]:   3178.59
	FillingsUpdate:  mu: -0.244750400  nElectrons: 373.237830
	Linear fluid (dielectric constant: 78.4, screening length: 5.74355 Bohr) occupying 0.781464 of unit cell:	Completed after 15 iterations at t[s]:   3250.99
SCF: Cycle: 41   G: -2104.506712749801409   dG: +6.021e-03   |Residual|: 6.705e-02   |deigs|: 5.194e-04  t[s]:   3252.64
	Linear fluid (dielectric constant: 78.4, screening length: 5.74355 Bohr) occupying 0.781617 of unit cell:	Completed after 16 iterations at t[s]:   3254.39
	FillingsUpdate:  mu: -0.244750400  nElectrons: 372.794859
	Linear fluid (dielectric constant: 78.4, screening length: 5.74355 Bohr) occupying 0.781358 of unit cell:	Completed after 13 iterations at t[s]:   3328.28
SCF: Cycle: 42   G: -2104.516587659160905   dG: -9.875e-03   |Residual|: 2.006e-02   |deigs|: 2.162e-03  t[s]:   3329.91
	Linear fluid (dielectric constant: 78.4, screening length: 5.74355 Bohr) occupying 0.782826 of unit cell:	Completed after 14 iterations at t[s]:   3331.56
	FillingsUpdate:  mu: -0.244750400  nElectrons: 373.159822
	Linear fluid (dielectric constant: 78.4, screening length: 5.74355 Bohr) occupying 0.781502 of unit cell:	Completed after 14 iterations at t[s]:   3404.24
SCF: Cycle: 43   G: -2104.518072502931318   dG: -1.485e-03   |Residual|: 2.098e-02   |deigs|: 6.265e-04  t[s]:   3406.21
	Linear fluid (dielectric constant: 78.4, screening length: 5.74355 Bohr) occupying 0.782940 of unit cell:	Completed after 14 iterations at t[s]:   3407.89
	FillingsUpdate:  mu: -0.244750400  nElectrons: 373.106716
	Linear fluid (dielectric constant: 78.4, screening length: 5.74355 Bohr) occupying 0.781461 of unit cell:	Completed after 12 iterations at t[s]:   3482.24
SCF: Cycle: 44   G: -2104.519312189077482   dG: -1.240e-03   |Residual|: 9.051e-03   |deigs|: 3.342e-04  t[s]:   3483.83
	Linear fluid (dielectric constant: 78.4, screening length: 5.74355 Bohr) occupying 0.783020 of unit cell:	Completed after 12 iterations at t[s]:   3485.22
	FillingsUpdate:  mu: -0.244750400  nElectrons: 373.105683
	Linear fluid (dielectric constant: 78.4, screening length: 5.74355 Bohr) occupying 0.781393 of unit cell:	Completed after 11 iterations at t[s]:   3558.33
SCF: Cycle: 45   G: -2104.519434186971012   dG: -1.220e-04   |Residual|: 6.540e-03   |deigs|: 5.758e-04  t[s]:   3560.35
	Linear fluid (dielectric constant: 78.4, screening length: 5.74355 Bohr) occupying 0.783066 of unit cell:	Completed after 12 iterations at t[s]:   3561.90
	FillingsUpdate:  mu: -0.244750400  nElectrons: 373.008494
	Linear fluid (dielectric constant: 78.4, screening length: 5.74355 Bohr) occupying 0.781365 of unit cell:	Completed after 13 iterations at t[s]:   3633.96
SCF: Cycle: 46   G: -2104.518570188159174   dG: +8.640e-04   |Residual|: 1.800e-02   |deigs|: 6.363e-04  t[s]:   3635.51
	Linear fluid (dielectric constant: 78.4, screening length: 5.74355 Bohr) occupying 0.782223 of unit cell:	Completed after 14 iterations at t[s]:   3637.11
	FillingsUpdate:  mu: -0.244750400  nElectrons: 373.021257
	Linear fluid (dielectric constant: 78.4, screening length: 5.74355 Bohr) occupying 0.781310 of unit cell:	Completed after 11 iterations at t[s]:   3710.20
SCF: Cycle: 47   G: -2104.519333489393375   dG: -7.633e-04   |Residual|: 7.370e-03   |deigs|: 2.864e-04  t[s]:   3711.86
	Linear fluid (dielectric constant: 78.4, screening length: 5.74355 Bohr) occupying 0.781906 of unit cell:	Completed after 11 iterations at t[s]:   3713.28
	FillingsUpdate:  mu: -0.244750400  nElectrons: 373.066959
	Linear fluid (dielectric constant: 78.4, screening length: 5.74355 Bohr) occupying 0.781298 of unit cell:	Completed after 12 iterations at t[s]:   3786.71
SCF: Cycle: 48   G: -2104.519194324381715   dG: +1.392e-04   |Residual|: 1.126e-02   |deigs|: 2.049e-04  t[s]:   3788.20
	Linear fluid (dielectric constant: 78.4, screening length: 5.74355 Bohr) occupying 0.781969 of unit cell:	Completed after 12 iterations at t[s]:   3789.60
	FillingsUpdate:  mu: -0.244750400  nElectrons: 373.086139
	Linear fluid (dielectric constant: 78.4, screening length: 5.74355 Bohr) occupying 0.781303 of unit cell:	Completed after 9 iterations at t[s]:   3863.40
SCF: Cycle: 49   G: -2104.519420894156156   dG: -2.266e-04   |Residual|: 7.329e-03   |deigs|: 2.396e-04  t[s]:   3865.09
	Linear fluid (dielectric constant: 78.4, screening length: 5.74355 Bohr) occupying 0.781644 of unit cell:	Completed after 8 iterations at t[s]:   3866.19
	FillingsUpdate:  mu: -0.244750400  nElectrons: 373.102844
	Linear fluid (dielectric constant: 78.4, screening length: 5.74355 Bohr) occupying 0.781288 of unit cell:	Completed after 9 iterations at t[s]:   3938.47
SCF: Cycle: 50   G: -2104.519487603282414   dG: -6.671e-05   |Residual|: 5.337e-03   |deigs|: 2.022e-04  t[s]:   3940.16
	Linear fluid (dielectric constant: 78.4, screening length: 5.74355 Bohr) occupying 0.781034 of unit cell:	Completed after 10 iterations at t[s]:   3941.45
	FillingsUpdate:  mu: -0.244750400  nElectrons: 373.032893
	Linear fluid (dielectric constant: 78.4, screening length: 5.74355 Bohr) occupying 0.781244 of unit cell:	Completed after 11 iterations at t[s]:   4013.83
SCF: Cycle: 51   G: -2104.519284733018594   dG: +2.029e-04   |Residual|: 8.629e-03   |deigs|: 1.016e-03  t[s]:   4015.47
	Linear fluid (dielectric constant: 78.4, screening length: 5.74355 Bohr) occupying 0.781001 of unit cell:	Completed after 12 iterations at t[s]:   4016.91
	FillingsUpdate:  mu: -0.244750400  nElectrons: 373.062855
	Linear fluid (dielectric constant: 78.4, screening length: 5.74355 Bohr) occupying 0.781244 of unit cell:	Completed after 11 iterations at t[s]:   4090.23
SCF: Cycle: 52   G: -2104.519437352226760   dG: -1.526e-04   |Residual|: 6.453e-03   |deigs|: 2.728e-04  t[s]:   4091.79
	Linear fluid (dielectric constant: 78.4, screening length: 5.74355 Bohr) occupying 0.780878 of unit cell:	Completed after 11 iterations at t[s]:   4093.19
	FillingsUpdate:  mu: -0.244750400  nElectrons: 373.067682
	Linear fluid (dielectric constant: 78.4, screening length: 5.74355 Bohr) occupying 0.781241 of unit cell:	Completed after 10 iterations at t[s]:   4165.75
SCF: Cycle: 53   G: -2104.519530773670795   dG: -9.342e-05   |Residual|: 2.997e-03   |deigs|: 4.593e-04  t[s]:   4167.38
	Linear fluid (dielectric constant: 78.4, screening length: 5.74355 Bohr) occupying 0.780943 of unit cell:	Completed after 10 iterations at t[s]:   4168.62
	FillingsUpdate:  mu: -0.244750400  nElectrons: 373.076336
	Linear fluid (dielectric constant: 78.4, screening length: 5.74355 Bohr) occupying 0.781244 of unit cell:	Completed after 10 iterations at t[s]:   4242.21
SCF: Cycle: 54   G: -2104.519549783002276   dG: -1.901e-05   |Residual|: 2.346e-03   |deigs|: 4.368e-05  t[s]:   4244.23
	Linear fluid (dielectric constant: 78.4, screening length: 5.74355 Bohr) occupying 0.780908 of unit cell:	Completed after 10 iterations at t[s]:   4245.62
	FillingsUpdate:  mu: -0.244750400  nElectrons: 373.072579
	Linear fluid (dielectric constant: 78.4, screening length: 5.74355 Bohr) occupying 0.781243 of unit cell:	Completed after 10 iterations at t[s]:   4317.78
SCF: Cycle: 55   G: -2104.519515442493230   dG: +3.434e-05   |Residual|: 4.143e-03   |deigs|: 1.397e-04  t[s]:   4319.70
	Linear fluid (dielectric constant: 78.4, screening length: 5.74355 Bohr) occupying 0.780940 of unit cell:	Completed after 10 iterations at t[s]:   4321.02
	FillingsUpdate:  mu: -0.244750400  nElectrons: 373.079476
	Linear fluid (dielectric constant: 78.4, screening length: 5.74355 Bohr) occupying 0.781246 of unit cell:	Completed after 10 iterations at t[s]:   4393.85
SCF: Cycle: 56   G: -2104.519553417763746   dG: -3.798e-05   |Residual|: 2.270e-03   |deigs|: 9.479e-05  t[s]:   4395.53
	Linear fluid (dielectric constant: 78.4, screening length: 5.74355 Bohr) occupying 0.781001 of unit cell:	Completed after 9 iterations at t[s]:   4396.77
	FillingsUpdate:  mu: -0.244750400  nElectrons: 373.075257
	Linear fluid (dielectric constant: 78.4, screening length: 5.74355 Bohr) occupying 0.781251 of unit cell:	Completed after 9 iterations at t[s]:   4468.97
SCF: Cycle: 57   G: -2104.519556825292966   dG: -3.408e-06   |Residual|: 1.646e-03   |deigs|: 1.679e-04  t[s]:   4470.78
	Linear fluid (dielectric constant: 78.4, screening length: 5.74355 Bohr) occupying 0.781043 of unit cell:	Completed after 8 iterations at t[s]:   4471.92
	FillingsUpdate:  mu: -0.244750400  nElectrons: 373.080135
	Linear fluid (dielectric constant: 78.4, screening length: 5.74355 Bohr) occupying 0.781254 of unit cell:	Completed after 10 iterations at t[s]:   4546.42
SCF: Cycle: 58   G: -2104.519555522485462   dG: +1.303e-06   |Residual|: 2.003e-03   |deigs|: 2.951e-05  t[s]:   4548.11
	Linear fluid (dielectric constant: 78.4, screening length: 5.74355 Bohr) occupying 0.781099 of unit cell:	Completed after 9 iterations at t[s]:   4549.36
	FillingsUpdate:  mu: -0.244750400  nElectrons: 373.082073
	Linear fluid (dielectric constant: 78.4, screening length: 5.74355 Bohr) occupying 0.781258 of unit cell:	Completed after 8 iterations at t[s]:   4623.34
SCF: Cycle: 59   G: -2104.519566064946957   dG: -1.054e-05   |Residual|: 1.234e-03   |deigs|: 4.808e-05  t[s]:   4625.16
	Linear fluid (dielectric constant: 78.4, screening length: 5.74355 Bohr) occupying 0.780988 of unit cell:	Completed after 8 iterations at t[s]:   4626.32
	FillingsUpdate:  mu: -0.244750400  nElectrons: 373.083340
	Linear fluid (dielectric constant: 78.4, screening length: 5.74355 Bohr) occupying 0.781252 of unit cell:	Completed after 9 iterations at t[s]:   4698.44
SCF: Cycle: 60   G: -2104.519538022920642   dG: +2.804e-05   |Residual|: 3.361e-03   |deigs|: 2.218e-04  t[s]:   4700.24
	Linear fluid (dielectric constant: 78.4, screening length: 5.74355 Bohr) occupying 0.781263 of unit cell:	Completed after 8 iterations at t[s]:   4701.41
	FillingsUpdate:  mu: -0.244750400  nElectrons: 373.085462
	Linear fluid (dielectric constant: 78.4, screening length: 5.74355 Bohr) occupying 0.781270 of unit cell:	Completed after 8 iterations at t[s]:   4774.63
SCF: Cycle: 61   G: -2104.519490291473630   dG: +4.773e-05   |Residual|: 5.012e-03   |deigs|: 3.064e-04  t[s]:   4776.33
	Linear fluid (dielectric constant: 78.4, screening length: 5.74355 Bohr) occupying 0.781194 of unit cell:	Completed after 8 iterations at t[s]:   4777.51
	FillingsUpdate:  mu: -0.244750400  nElectrons: 373.080991
	Linear fluid (dielectric constant: 78.4, screening length: 5.74355 Bohr) occupying 0.781265 of unit cell:	Completed after 8 iterations at t[s]:   4849.39
SCF: Cycle: 62   G: -2104.519561691190574   dG: -7.140e-05   |Residual|: 1.678e-03   |deigs|: 1.124e-04  t[s]:   4850.82
	Linear fluid (dielectric constant: 78.4, screening length: 5.74355 Bohr) occupying 0.781252 of unit cell:	Completed after 8 iterations at t[s]:   4851.92
	FillingsUpdate:  mu: -0.244750400  nElectrons: 373.086077
	Linear fluid (dielectric constant: 78.4, screening length: 5.74355 Bohr) occupying 0.781270 of unit cell:	Completed after 6 iterations at t[s]:   4925.29
SCF: Cycle: 63   G: -2104.519559648993891   dG: +2.042e-06   |Residual|: 1.868e-03   |deigs|: 7.259e-05  t[s]:   4926.90
	Linear fluid (dielectric constant: 78.4, screening length: 5.74355 Bohr) occupying 0.781307 of unit cell:	Completed after 6 iterations at t[s]:   4927.91
	FillingsUpdate:  mu: -0.244750400  nElectrons: 373.090584
	Linear fluid (dielectric constant: 78.4, screening length: 5.74355 Bohr) occupying 0.781275 of unit cell:	Completed after 3 iterations at t[s]:   5001.25
SCF: Cycle: 64   G: -2104.519572340959712   dG: -1.269e-05   |Residual|: 5.205e-04   |deigs|: 8.351e-05  t[s]:   5003.11
	Linear fluid (dielectric constant: 78.4, screening length: 5.74355 Bohr) occupying 0.781311 of unit cell:	Completed after 3 iterations at t[s]:   5003.90
	FillingsUpdate:  mu: -0.244750400  nElectrons: 373.076260
	Linear fluid (dielectric constant: 78.4, screening length: 5.74355 Bohr) occupying 0.781274 of unit cell:	Completed after 8 iterations at t[s]:   5075.77
SCF: Cycle: 65   G: -2104.519562745342228   dG: +9.596e-06   |Residual|: 1.461e-03   |deigs|: 6.165e-05  t[s]:   5077.54
	Linear fluid (dielectric constant: 78.4, screening length: 5.74355 Bohr) occupying 0.781351 of unit cell:	Completed after 8 iterations at t[s]:   5078.67
	FillingsUpdate:  mu: -0.244750400  nElectrons: 373.081734
	Linear fluid (dielectric constant: 78.4, screening length: 5.74355 Bohr) occupying 0.781278 of unit cell:	Completed after 8 iterations at t[s]:   5150.02
SCF: Cycle: 66   G: -2104.519565056289593   dG: -2.311e-06   |Residual|: 1.473e-03   |deigs|: 1.378e-04  t[s]:   5151.80
	Linear fluid (dielectric constant: 78.4, screening length: 5.74355 Bohr) occupying 0.781422 of unit cell:	Completed after 8 iterations at t[s]:   5153.06
	FillingsUpdate:  mu: -0.244750400  nElectrons: 373.093662
	Linear fluid (dielectric constant: 78.4, screening length: 5.74355 Bohr) occupying 0.781285 of unit cell:	Completed after 6 iterations at t[s]:   5224.59
SCF: Cycle: 67   G: -2104.519565447557852   dG: -3.913e-07   |Residual|: 1.371e-03   |deigs|: 1.454e-04  t[s]:   5226.17
	Linear fluid (dielectric constant: 78.4, screening length: 5.74355 Bohr) occupying 0.781400 of unit cell:	Completed after 4 iterations at t[s]:   5227.04
	FillingsUpdate:  mu: -0.244750400  nElectrons: 373.059060
	Linear fluid (dielectric constant: 78.4, screening length: 5.74355 Bohr) occupying 0.781280 of unit cell:	Completed after 9 iterations at t[s]:   5299.52
SCF: Cycle: 68   G: -2104.519540540377875   dG: +2.491e-05   |Residual|: 1.981e-03   |deigs|: 6.053e-05  t[s]:   5301.53
	Linear fluid (dielectric constant: 78.4, screening length: 5.74355 Bohr) occupying 0.781377 of unit cell:	Completed after 9 iterations at t[s]:   5302.75
	FillingsUpdate:  mu: -0.244750400  nElectrons: 373.084970
	Linear fluid (dielectric constant: 78.4, screening length: 5.74355 Bohr) occupying 0.781280 of unit cell:	Completed after 8 iterations at t[s]:   5375.71
SCF: Cycle: 69   G: -2104.519569893635435   dG: -2.935e-05   |Residual|: 9.388e-04   |deigs|: 1.044e-04  t[s]:   5377.37
	Linear fluid (dielectric constant: 78.4, screening length: 5.74355 Bohr) occupying 0.781430 of unit cell:	Completed after 4 iterations at t[s]:   5378.24
	FillingsUpdate:  mu: -0.244750400  nElectrons: 373.149190
	Linear fluid (dielectric constant: 78.4, screening length: 5.74355 Bohr) occupying 0.781289 of unit cell:	Completed after 10 iterations at t[s]:   5450.80
SCF: Cycle: 70   G: -2104.519427678666943   dG: +1.422e-04   |Residual|: 4.357e-03   |deigs|: 2.852e-04  t[s]:   5452.65
	Linear fluid (dielectric constant: 78.4, screening length: 5.74355 Bohr) occupying 0.781409 of unit cell:	Completed after 11 iterations at t[s]:   5454.20
	FillingsUpdate:  mu: -0.244750400  nElectrons: 373.113881
	Linear fluid (dielectric constant: 78.4, screening length: 5.74355 Bohr) occupying 0.781285 of unit cell:	Completed after 10 iterations at t[s]:   5525.26
SCF: Cycle: 71   G: -2104.519545461443613   dG: -1.178e-04   |Residual|: 1.973e-03   |deigs|: 1.002e-04  t[s]:   5527.02
	Linear fluid (dielectric constant: 78.4, screening length: 5.74355 Bohr) occupying 0.781400 of unit cell:	Completed after 10 iterations at t[s]:   5528.52
	FillingsUpdate:  mu: -0.244750400  nElectrons: 373.144276
	Linear fluid (dielectric constant: 78.4, screening length: 5.74355 Bohr) occupying 0.781286 of unit cell:	Completed after 11 iterations at t[s]:   5602.01
SCF: Cycle: 72   G: -2104.519449840451671   dG: +9.562e-05   |Residual|: 4.056e-03   |deigs|: 3.313e-04  t[s]:   5603.58
	Linear fluid (dielectric constant: 78.4, screening length: 5.74355 Bohr) occupying 0.781385 of unit cell:	Completed after 12 iterations at t[s]:   5605.14
	FillingsUpdate:  mu: -0.244750400  nElectrons: 373.106712
	Linear fluid (dielectric constant: 78.4, screening length: 5.74355 Bohr) occupying 0.781283 of unit cell:	Completed after 8 iterations at t[s]:   5677.09
SCF: Cycle: 73   G: -2104.519552392246169   dG: -1.026e-04   |Residual|: 2.098e-03   |deigs|: 4.286e-04  t[s]:   5678.86
	Linear fluid (dielectric constant: 78.4, screening length: 5.74355 Bohr) occupying 0.781431 of unit cell:	Completed after 10 iterations at t[s]:   5680.29
	FillingsUpdate:  mu: -0.244750400  nElectrons: 373.127903
	Linear fluid (dielectric constant: 78.4, screening length: 5.74355 Bohr) occupying 0.781288 of unit cell:	Completed after 10 iterations at t[s]:   5752.77
SCF: Cycle: 74   G: -2104.519506934998844   dG: +4.546e-05   |Residual|: 3.038e-03   |deigs|: 2.835e-04  t[s]:   5754.30
	Linear fluid (dielectric constant: 78.4, screening length: 5.74355 Bohr) occupying 0.781367 of unit cell:	Completed after 10 iterations at t[s]:   5755.53
	FillingsUpdate:  mu: -0.244750400  nElectrons: 373.128605
	Linear fluid (dielectric constant: 78.4, screening length: 5.74355 Bohr) occupying 0.781283 of unit cell:	Completed after 11 iterations at t[s]:   5828.06
SCF: Cycle: 75   G: -2104.519506573842136   dG: +3.612e-07   |Residual|: 3.081e-03   |deigs|: 1.368e-04  t[s]:   5829.63
	Linear fluid (dielectric constant: 78.4, screening length: 5.74355 Bohr) occupying 0.781364 of unit cell:	Completed after 10 iterations at t[s]:   5830.98
	FillingsUpdate:  mu: -0.244750400  nElectrons: 373.155125
	Linear fluid (dielectric constant: 78.4, screening length: 5.74355 Bohr) occupying 0.781284 of unit cell:	Completed after 11 iterations at t[s]:   5902.97
SCF: Cycle: 76   G: -2104.519402023019211   dG: +1.046e-04   |Residual|: 4.750e-03   |deigs|: 2.832e-04  t[s]:   5904.55
	Linear fluid (dielectric constant: 78.4, screening length: 5.74355 Bohr) occupying 0.781351 of unit cell:	Completed after 11 iterations at t[s]:   5906.02
	FillingsUpdate:  mu: -0.244750400  nElectrons: 373.200403
	Linear fluid (dielectric constant: 78.4, screening length: 5.74355 Bohr) occupying 0.781286 of unit cell:	Completed after 12 iterations at t[s]:   5978.32
SCF: Cycle: 77   G: -2104.519112399620099   dG: +2.896e-04   |Residual|: 7.502e-03   |deigs|: 5.069e-04  t[s]:   5979.78
	Linear fluid (dielectric constant: 78.4, screening length: 5.74355 Bohr) occupying 0.781361 of unit cell:	Completed after 10 iterations at t[s]:   5981.19
	FillingsUpdate:  mu: -0.244750400  nElectrons: 373.136098
	Linear fluid (dielectric constant: 78.4, screening length: 5.74355 Bohr) occupying 0.781283 of unit cell:	Completed after 11 iterations at t[s]:   6053.02
SCF: Cycle: 78   G: -2104.519482590730149   dG: -3.702e-04   |Residual|: 3.509e-03   |deigs|: 6.992e-04  t[s]:   6054.79
	Linear fluid (dielectric constant: 78.4, screening length: 5.74355 Bohr) occupying 0.781314 of unit cell:	Completed after 10 iterations at t[s]:   6056.09
	FillingsUpdate:  mu: -0.244750400  nElectrons: 373.190811
	Linear fluid (dielectric constant: 78.4, screening length: 5.74355 Bohr) occupying 0.781282 of unit cell:	Completed after 12 iterations at t[s]:   6129.70
SCF: Cycle: 79   G: -2104.519185074304914   dG: +2.975e-04   |Residual|: 7.005e-03   |deigs|: 5.776e-04  t[s]:   6131.26
	Linear fluid (dielectric constant: 78.4, screening length: 5.74355 Bohr) occupying 0.781327 of unit cell:	Completed after 11 iterations at t[s]:   6132.64
	FillingsUpdate:  mu: -0.244750400  nElectrons: 373.182743
	Linear fluid (dielectric constant: 78.4, screening length: 5.74355 Bohr) occupying 0.781282 of unit cell:	Completed after 11 iterations at t[s]:   6200.64
SCF: Cycle: 80   G: -2104.519248300321578   dG: -6.323e-05   |Residual|: 6.329e-03   |deigs|: 1.155e-04  t[s]:   6202.42
	Linear fluid (dielectric constant: 78.4, screening length: 5.74355 Bohr) occupying 0.781385 of unit cell:	Completed after 12 iterations at t[s]:   6203.93
	FillingsUpdate:  mu: -0.244750400  nElectrons: 373.092711
	Linear fluid (dielectric constant: 78.4, screening length: 5.74355 Bohr) occupying 0.781282 of unit cell:	Completed after 3 iterations at t[s]:   6276.38
SCF: Cycle: 81   G: -2104.519571165194975   dG: -3.229e-04   |Residual|: 6.754e-04   |deigs|: 7.795e-04  t[s]:   6278.18
	Linear fluid (dielectric constant: 78.4, screening length: 5.74355 Bohr) occupying 0.781396 of unit cell:	Completed after 3 iterations at t[s]:   6279.03
	FillingsUpdate:  mu: -0.244750400  nElectrons: 373.090045
	Linear fluid (dielectric constant: 78.4, screening length: 5.74355 Bohr) occupying 0.781282 of unit cell:	Completed after 3 iterations at t[s]:   6351.43
SCF: Cycle: 82   G: -2104.519570409941480   dG: +7.553e-07   |Residual|: 8.552e-04   |deigs|: 5.701e-05  t[s]:   6353.21
	Linear fluid (dielectric constant: 78.4, screening length: 5.74355 Bohr) occupying 0.781385 of unit cell:	Completed after 3 iterations at t[s]:   6354.06
	FillingsUpdate:  mu: -0.244750400  nElectrons: 373.099394
	Linear fluid (dielectric constant: 78.4, screening length: 5.74355 Bohr) occupying 0.781282 of unit cell:	Completed after 8 iterations at t[s]:   6427.07
SCF: Cycle: 83   G: -2104.519565242104363   dG: +5.168e-06   |Residual|: 1.233e-03   |deigs|: 1.804e-05  t[s]:   6428.71
	Linear fluid (dielectric constant: 78.4, screening length: 5.74355 Bohr) occupying 0.781386 of unit cell:	Completed after 8 iterations at t[s]:   6429.88
	FillingsUpdate:  mu: -0.244750400  nElectrons: 373.094637
	Linear fluid (dielectric constant: 78.4, screening length: 5.74355 Bohr) occupying 0.781282 of unit cell:	Completed after 8 iterations at t[s]:   6499.90
SCF: Cycle: 84   G: -2104.519567883194213   dG: -2.641e-06   |Residual|: 1.079e-03   |deigs|: 1.972e-05  t[s]:   6501.61
	Linear fluid (dielectric constant: 78.4, screening length: 5.74355 Bohr) occupying 0.781378 of unit cell:	Completed after 6 iterations at t[s]:   6502.55
	FillingsUpdate:  mu: -0.244750400  nElectrons: 373.082650
	Linear fluid (dielectric constant: 78.4, screening length: 5.74355 Bohr) occupying 0.781280 of unit cell:	Completed after 8 iterations at t[s]:   6576.24
SCF: Cycle: 85   G: -2104.519569394370592   dG: -1.511e-06   |Residual|: 9.809e-04   |deigs|: 2.031e-05  t[s]:   6578.26
	Linear fluid (dielectric constant: 78.4, screening length: 5.74355 Bohr) occupying 0.781367 of unit cell:	Completed after 4 iterations at t[s]:   6579.16
	FillingsUpdate:  mu: -0.244750400  nElectrons: 373.156839
	Linear fluid (dielectric constant: 78.4, screening length: 5.74355 Bohr) occupying 0.781285 of unit cell:	Completed after 10 iterations at t[s]:   6651.07
SCF: Cycle: 86   G: -2104.519395963605803   dG: +1.734e-04   |Residual|: 4.762e-03   |deigs|: 1.231e-04  t[s]:   6652.71
	Linear fluid (dielectric constant: 78.4, screening length: 5.74355 Bohr) occupying 0.781368 of unit cell:	Completed after 11 iterations at t[s]:   6654.10
	FillingsUpdate:  mu: -0.244750400  nElectrons: 373.109637
	Linear fluid (dielectric constant: 78.4, screening length: 5.74355 Bohr) occupying 0.781281 of unit cell:	Completed after 9 iterations at t[s]:   6713.38
SCF: Cycle: 87   G: -2104.519554791743758   dG: -1.588e-04   |Residual|: 1.601e-03   |deigs|: 7.616e-05  t[s]:   6715.08
	Linear fluid (dielectric constant: 78.4, screening length: 5.74355 Bohr) occupying 0.781338 of unit cell:	Completed after 8 iterations at t[s]:   6716.18
	FillingsUpdate:  mu: -0.244750400  nElectrons: 373.142032
	Linear fluid (dielectric constant: 78.4, screening length: 5.74355 Bohr) occupying 0.781281 of unit cell:	Completed after 12 iterations at t[s]:   6788.22
SCF: Cycle: 88   G: -2104.519459383208869   dG: +9.541e-05   |Residual|: 3.907e-03   |deigs|: 2.851e-04  t[s]:   6789.96
	Linear fluid (dielectric constant: 78.4, screening length: 5.74355 Bohr) occupying 0.781325 of unit cell:	Completed after 10 iterations at t[s]:   6791.38
	FillingsUpdate:  mu: -0.244750400  nElectrons: 373.152436
	Linear fluid (dielectric constant: 78.4, screening length: 5.74355 Bohr) occupying 0.781280 of unit cell:	Completed after 11 iterations at t[s]:   6863.71
SCF: Cycle: 89   G: -2104.519418975637109   dG: +4.041e-05   |Residual|: 4.499e-03   |deigs|: 6.889e-05  t[s]:   6865.62
	Linear fluid (dielectric constant: 78.4, screening length: 5.74355 Bohr) occupying 0.781321 of unit cell:	Completed after 12 iterations at t[s]:   6867.16
	FillingsUpdate:  mu: -0.244750400  nElectrons: 373.153964
	Linear fluid (dielectric constant: 78.4, screening length: 5.74355 Bohr) occupying 0.781280 of unit cell:	Completed after 11 iterations at t[s]:   6938.62
SCF: Cycle: 90   G: -2104.519419075531914   dG: -9.989e-08   |Residual|: 4.351e-03   |deigs|: 6.395e-06  t[s]:   6940.08
	Linear fluid (dielectric constant: 78.4, screening length: 5.74355 Bohr) occupying 0.781320 of unit cell:	Completed after 11 iterations at t[s]:   6941.38
	FillingsUpdate:  mu: -0.244750400  nElectrons: 373.155537
	Linear fluid (dielectric constant: 78.4, screening length: 5.74355 Bohr) occupying 0.781280 of unit cell:	Completed after 12 iterations at t[s]:   7014.75
SCF: Cycle: 91   G: -2104.519408885179928   dG: +1.019e-05   |Residual|: 4.521e-03   |deigs|: 7.465e-06  t[s]:   7016.38
	Linear fluid (dielectric constant: 78.4, screening length: 5.74355 Bohr) occupying 0.781305 of unit cell:	Completed after 11 iterations at t[s]:   7017.74
	FillingsUpdate:  mu: -0.244750400  nElectrons: 373.165418
	Linear fluid (dielectric constant: 78.4, screening length: 5.74355 Bohr) occupying 0.781279 of unit cell:	Completed after 12 iterations at t[s]:   7090.54
SCF: Cycle: 92   G: -2104.519355267648734   dG: +5.362e-05   |Residual|: 5.253e-03   |deigs|: 8.721e-05  t[s]:   7092.41
	Linear fluid (dielectric constant: 78.4, screening length: 5.74355 Bohr) occupying 0.781347 of unit cell:	Completed after 11 iterations at t[s]:   7093.76
	FillingsUpdate:  mu: -0.244750400  nElectrons: 373.134155
	Linear fluid (dielectric constant: 78.4, screening length: 5.74355 Bohr) occupying 0.781281 of unit cell:	Completed after 10 iterations at t[s]:   7166.21
SCF: Cycle: 93   G: -2104.519496960176184   dG: -1.417e-04   |Residual|: 3.046e-03   |deigs|: 2.594e-04  t[s]:   7167.81
	Linear fluid (dielectric constant: 78.4, screening length: 5.74355 Bohr) occupying 0.781348 of unit cell:	Completed after 10 iterations at t[s]:   7169.15
	FillingsUpdate:  mu: -0.244750400  nElectrons: 373.135453
	Linear fluid (dielectric constant: 78.4, screening length: 5.74355 Bohr) occupying 0.781281 of unit cell:	Completed after 10 iterations at t[s]:   7236.73
SCF: Cycle: 94   G: -2104.519488882847781   dG: +8.077e-06   |Residual|: 3.292e-03   |deigs|: 1.499e-05  t[s]:   7238.37
	Linear fluid (dielectric constant: 78.4, screening length: 5.74355 Bohr) occupying 0.781345 of unit cell:	Completed after 12 iterations at t[s]:   7239.87
	FillingsUpdate:  mu: -0.244750400  nElectrons: 373.132818
	Linear fluid (dielectric constant: 78.4, screening length: 5.74355 Bohr) occupying 0.781281 of unit cell:	Completed after 10 iterations at t[s]:   7304.90
SCF: Cycle: 95   G: -2104.519502979154367   dG: -1.410e-05   |Residual|: 2.903e-03   |deigs|: 3.427e-05  t[s]:   7306.89
	Linear fluid (dielectric constant: 78.4, screening length: 5.74355 Bohr) occupying 0.781342 of unit cell:	Completed after 10 iterations at t[s]:   7308.16
	FillingsUpdate:  mu: -0.244750400  nElectrons: 373.135790
	Linear fluid (dielectric constant: 78.4, screening length: 5.74355 Bohr) occupying 0.781281 of unit cell:	Completed after 10 iterations at t[s]:   7375.08
SCF: Cycle: 96   G: -2104.519490795522415   dG: +1.218e-05   |Residual|: 3.254e-03   |deigs|: 4.277e-05  t[s]:   7376.74
	Linear fluid (dielectric constant: 78.4, screening length: 5.74355 Bohr) occupying 0.781354 of unit cell:	Completed after 10 iterations at t[s]:   7377.98
	FillingsUpdate:  mu: -0.244750400  nElectrons: 373.087791
	Linear fluid (dielectric constant: 78.4, screening length: 5.74355 Bohr) occupying 0.781279 of unit cell:	Completed after 4 iterations at t[s]:   7449.05
SCF: Cycle: 97   G: -2104.519554309384603   dG: -6.351e-05   |Residual|: 2.505e-03   |deigs|: 2.862e-04  t[s]:   7450.91
	Linear fluid (dielectric constant: 78.4, screening length: 5.74355 Bohr) occupying 0.781372 of unit cell:	Completed after 4 iterations at t[s]:   7451.88
	FillingsUpdate:  mu: -0.244750400  nElectrons: 373.100750
	Linear fluid (dielectric constant: 78.4, screening length: 5.74355 Bohr) occupying 0.781281 of unit cell:	Completed after 8 iterations at t[s]:   7524.42
SCF: Cycle: 98   G: -2104.519563426206332   dG: -9.117e-06   |Residual|: 1.296e-03   |deigs|: 2.437e-05  t[s]:   7525.94
	Linear fluid (dielectric constant: 78.4, screening length: 5.74355 Bohr) occupying 0.781358 of unit cell:	Completed after 9 iterations at t[s]:   7527.13
	FillingsUpdate:  mu: -0.244750400  nElectrons: 373.076340
	Linear fluid (dielectric constant: 78.4, screening length: 5.74355 Bohr) occupying 0.781279 of unit cell:	Completed after 8 iterations at t[s]:   7600.08
SCF: Cycle: 99   G: -2104.519562392820717   dG: +1.033e-06   |Residual|: 1.616e-03   |deigs|: 4.005e-05  t[s]:   7601.55
	Linear fluid (dielectric constant: 78.4, screening length: 5.74355 Bohr) occupying 0.781358 of unit cell:	Completed after 9 iterations at t[s]:   7602.68
	FillingsUpdate:  mu: -0.244750400  nElectrons: 373.102989
	Linear fluid (dielectric constant: 78.4, screening length: 5.74355 Bohr) occupying 0.781280 of unit cell:	Completed after 8 iterations at t[s]:   7674.13
SCF: Cycle: 100   G: -2104.519564784081012   dG: -2.391e-06   |Residual|: 1.104e-03   |deigs|: 5.749e-05  t[s]:   7675.85
	Linear fluid (dielectric constant: 78.4, screening length: 5.74355 Bohr) occupying 0.781354 of unit cell:	Completed after 8 iterations at t[s]:   7677.02
	FillingsUpdate:  mu: -0.244750400  nElectrons: 373.086549
	Linear fluid (dielectric constant: 78.4, screening length: 5.74355 Bohr) occupying 0.781279 of unit cell:	Completed after 4 iterations at t[s]:   7743.64
SCF: Cycle: 101   G: -2104.519570776823002   dG: -5.993e-06   |Residual|: 8.222e-04   |deigs|: 3.135e-05  t[s]:   7745.25
	Linear fluid (dielectric constant: 78.4, screening length: 5.74355 Bohr) occupying 0.781352 of unit cell:	Completed after 4 iterations at t[s]:   7746.11
	FillingsUpdate:  mu: -0.244750400  nElectrons: 373.103773
	Linear fluid (dielectric constant: 78.4, screening length: 5.74355 Bohr) occupying 0.781279 of unit cell:	Completed after 8 iterations at t[s]:   7804.48
SCF: Cycle: 102   G: -2104.519563810996715   dG: +6.966e-06   |Residual|: 1.166e-03   |deigs|: 3.488e-05  t[s]:   7806.07
	Linear fluid (dielectric constant: 78.4, screening length: 5.74355 Bohr) occupying 0.781350 of unit cell:	Completed after 8 iterations at t[s]:   7807.21
	FillingsUpdate:  mu: -0.244750400  nElectrons: 373.093285
	Linear fluid (dielectric constant: 78.4, screening length: 5.74355 Bohr) occupying 0.781279 of unit cell:	Completed after 4 iterations at t[s]:   7862.39
SCF: Cycle: 103   G: -2104.519567805433780   dG: -3.994e-06   |Residual|: 1.255e-03   |deigs|: 2.043e-05  t[s]:   7864.02
	Linear fluid (dielectric constant: 78.4, screening length: 5.74355 Bohr) occupying 0.781339 of unit cell:	Completed after 4 iterations at t[s]:   7864.83
	FillingsUpdate:  mu: -0.244750400  nElectrons: 373.078478
	Linear fluid (dielectric constant: 78.4, screening length: 5.74355 Bohr) occupying 0.781276 of unit cell:	Completed after 8 iterations at t[s]:   7937.66
SCF: Cycle: 104   G: -2104.519566736996239   dG: +1.068e-06   |Residual|: 1.062e-03   |deigs|: 2.803e-05  t[s]:   7939.30
	Linear fluid (dielectric constant: 78.4, screening length: 5.74355 Bohr) occupying 0.781341 of unit cell:	Completed after 8 iterations at t[s]:   7940.50
	FillingsUpdate:  mu: -0.244750400  nElectrons: 373.108104
	Linear fluid (dielectric constant: 78.4, screening length: 5.74355 Bohr) occupying 0.781279 of unit cell:	Completed after 9 iterations at t[s]:   8012.48
SCF: Cycle: 105   G: -2104.519559920865504   dG: +6.816e-06   |Residual|: 1.248e-03   |deigs|: 4.816e-05  t[s]:   8014.22
	Linear fluid (dielectric constant: 78.4, screening length: 5.74355 Bohr) occupying 0.781335 of unit cell:	Completed after 8 iterations at t[s]:   8015.36
	FillingsUpdate:  mu: -0.244750400  nElectrons: 373.092682
	Linear fluid (dielectric constant: 78.4, screening length: 5.74355 Bohr) occupying 0.781278 of unit cell:	Completed after 4 iterations at t[s]:   8069.58
SCF: Cycle: 106   G: -2104.519568194831663   dG: -8.274e-06   |Residual|: 1.112e-03   |deigs|: 2.815e-05  t[s]:   8071.42
	Linear fluid (dielectric constant: 78.4, screening length: 5.74355 Bohr) occupying 0.781332 of unit cell:	Completed after 4 iterations at t[s]:   8072.26
	FillingsUpdate:  mu: -0.244750400  nElectrons: 373.085369
	Linear fluid (dielectric constant: 78.4, screening length: 5.74355 Bohr) occupying 0.781276 of unit cell:	Completed after 6 iterations at t[s]:   8127.19
SCF: Cycle: 107   G: -2104.519571909583192   dG: -3.715e-06   |Residual|: 4.870e-04   |deigs|: 2.523e-05  t[s]:   8129.00
	Linear fluid (dielectric constant: 78.4, screening length: 5.74355 Bohr) occupying 0.781330 of unit cell:	Completed after 3 iterations at t[s]:   8129.87
	FillingsUpdate:  mu: -0.244750400  nElectrons: 373.136986
	Linear fluid (dielectric constant: 78.4, screening length: 5.74355 Bohr) occupying 0.781280 of unit cell:	Completed after 10 iterations at t[s]:   8202.85
SCF: Cycle: 108   G: -2104.519490750195018   dG: +8.116e-05   |Residual|: 3.089e-03   |deigs|: 8.673e-05  t[s]:   8204.53
	Linear fluid (dielectric constant: 78.4, screening length: 5.74355 Bohr) occupying 0.781322 of unit cell:	Completed after 10 iterations at t[s]:   8205.91
	FillingsUpdate:  mu: -0.244750400  nElectrons: 373.109314
	Linear fluid (dielectric constant: 78.4, screening length: 5.74355 Bohr) occupying 0.781277 of unit cell:	Completed after 10 iterations at t[s]:   8274.22
SCF: Cycle: 109   G: -2104.519555898750241   dG: -6.515e-05   |Residual|: 1.564e-03   |deigs|: 5.799e-05  t[s]:   8275.77
	Linear fluid (dielectric constant: 78.4, screening length: 5.74355 Bohr) occupying 0.781302 of unit cell:	Completed after 8 iterations at t[s]:   8276.87
	FillingsUpdate:  mu: -0.244750400  nElectrons: 373.104405
	Linear fluid (dielectric constant: 78.4, screening length: 5.74355 Bohr) occupying 0.781276 of unit cell:	Completed after 8 iterations at t[s]:   8344.51
SCF: Cycle: 110   G: -2104.519563064016893   dG: -7.165e-06   |Residual|: 1.198e-03   |deigs|: 4.375e-05  t[s]:   8346.47
	Linear fluid (dielectric constant: 78.4, screening length: 5.74355 Bohr) occupying 0.781315 of unit cell:	Completed after 8 iterations at t[s]:   8347.63
	FillingsUpdate:  mu: -0.244750400  nElectrons: 373.100666
	Linear fluid (dielectric constant: 78.4, screening length: 5.74355 Bohr) occupying 0.781276 of unit cell:	Completed after 8 iterations at t[s]:   8414.85
SCF: Cycle: 111   G: -2104.519567020557133   dG: -3.957e-06   |Residual|: 9.871e-04   |deigs|: 3.647e-05  t[s]:   8416.41
	Linear fluid (dielectric constant: 78.4, screening length: 5.74355 Bohr) occupying 0.781318 of unit cell:	Completed after 8 iterations at t[s]:   8417.56
	FillingsUpdate:  mu: -0.244750400  nElectrons: 373.106632
	Linear fluid (dielectric constant: 78.4, screening length: 5.74355 Bohr) occupying 0.781277 of unit cell:	Completed after 8 iterations at t[s]:   8472.60
SCF: Cycle: 112   G: -2104.519560369200462   dG: +6.651e-06   |Residual|: 1.341e-03   |deigs|: 1.125e-05  t[s]:   8474.10
	Linear fluid (dielectric constant: 78.4, screening length: 5.74355 Bohr) occupying 0.781304 of unit cell:	Completed after 9 iterations at t[s]:   8475.39
	FillingsUpdate:  mu: -0.244750400  nElectrons: 373.105810
	Linear fluid (dielectric constant: 78.4, screening length: 5.74355 Bohr) occupying 0.781276 of unit cell:	Completed after 10 iterations at t[s]:   8545.63
SCF: Cycle: 113   G: -2104.519559671352454   dG: +6.978e-07   |Residual|: 1.479e-03   |deigs|: 4.090e-05  t[s]:   8547.68
	Linear fluid (dielectric constant: 78.4, screening length: 5.74355 Bohr) occupying 0.781302 of unit cell:	Completed after 9 iterations at t[s]:   8549.07
	FillingsUpdate:  mu: -0.244750400  nElectrons: 373.105086
	Linear fluid (dielectric constant: 78.4, screening length: 5.74355 Bohr) occupying 0.781275 of unit cell:	Completed after 8 iterations at t[s]:   8621.44
SCF: Cycle: 114   G: -2104.519561735228763   dG: -2.064e-06   |Residual|: 1.315e-03   |deigs|: 5.545e-06  t[s]:   8623.11
	Linear fluid (dielectric constant: 78.4, screening length: 5.74355 Bohr) occupying 0.781295 of unit cell:	Completed after 10 iterations at t[s]:   8624.41
	FillingsUpdate:  mu: -0.244750400  nElectrons: 373.107149
	Linear fluid (dielectric constant: 78.4, screening length: 5.74355 Bohr) occupying 0.781275 of unit cell:	Completed after 8 iterations at t[s]:   8695.41
SCF: Cycle: 115   G: -2104.519561591526781   dG: +1.437e-07   |Residual|: 1.142e-03   |deigs|: 2.916e-05  t[s]:   8697.35
	Linear fluid (dielectric constant: 78.4, screening length: 5.74355 Bohr) occupying 0.781302 of unit cell:	Completed after 9 iterations at t[s]:   8698.78
	FillingsUpdate:  mu: -0.244750400  nElectrons: 373.106130
	Linear fluid (dielectric constant: 78.4, screening length: 5.74355 Bohr) occupying 0.781276 of unit cell:	Completed after 9 iterations at t[s]:   8771.70
SCF: Cycle: 116   G: -2104.519560748918138   dG: +8.426e-07   |Residual|: 1.315e-03   |deigs|: 2.349e-05  t[s]:   8773.22
	Linear fluid (dielectric constant: 78.4, screening length: 5.74355 Bohr) occupying 0.781302 of unit cell:	Completed after 8 iterations at t[s]:   8774.32
	FillingsUpdate:  mu: -0.244750400  nElectrons: 373.102490
	Linear fluid (dielectric constant: 78.4, screening length: 5.74355 Bohr) occupying 0.781275 of unit cell:	Completed after 10 iterations at t[s]:   8836.09
SCF: Cycle: 117   G: -2104.519563697966532   dG: -2.949e-06   |Residual|: 1.215e-03   |deigs|: 6.064e-06  t[s]:   8837.92
	Linear fluid (dielectric constant: 78.4, screening length: 5.74355 Bohr) occupying 0.781296 of unit cell:	Completed after 8 iterations at t[s]:   8839.12
	FillingsUpdate:  mu: -0.244750400  nElectrons: 373.098671
	Linear fluid (dielectric constant: 78.4, screening length: 5.74355 Bohr) occupying 0.781275 of unit cell:	Completed after 8 iterations at t[s]:   8903.56
SCF: Cycle: 118   G: -2104.519564367859402   dG: -6.699e-07   |Residual|: 1.613e-03   |deigs|: 1.976e-05  t[s]:   8905.20
	Linear fluid (dielectric constant: 78.4, screening length: 5.74355 Bohr) occupying 0.781301 of unit cell:	Completed after 8 iterations at t[s]:   8906.41
	FillingsUpdate:  mu: -0.244750400  nElectrons: 373.097054
	Linear fluid (dielectric constant: 78.4, screening length: 5.74355 Bohr) occupying 0.781275 of unit cell:	Completed after 8 iterations at t[s]:   8978.71
SCF: Cycle: 119   G: -2104.519558386607059   dG: +5.981e-06   |Residual|: 2.059e-03   |deigs|: 7.395e-06  t[s]:   8980.15
	Linear fluid (dielectric constant: 78.4, screening length: 5.74355 Bohr) occupying 0.781294 of unit cell:	Completed after 8 iterations at t[s]:   8981.32
	FillingsUpdate:  mu: -0.244750400  nElectrons: 373.089638
	Linear fluid (dielectric constant: 78.4, screening length: 5.74355 Bohr) occupying 0.781273 of unit cell:	Completed after 5 iterations at t[s]:   9039.57
SCF: Cycle: 120   G: -2104.519562337917705   dG: -3.951e-06   |Residual|: 1.735e-03   |deigs|: 2.444e-05  t[s]:   9041.25
	Linear fluid (dielectric constant: 78.4, screening length: 5.74355 Bohr) occupying 0.781293 of unit cell:	Completed after 5 iterations at t[s]:   9042.20
	FillingsUpdate:  mu: -0.244750400  nElectrons: 373.108398
	Linear fluid (dielectric constant: 78.4, screening length: 5.74355 Bohr) occupying 0.781274 of unit cell:	Completed after 9 iterations at t[s]:   9114.38
SCF: Cycle: 121   G: -2104.519557412533231   dG: +4.925e-06   |Residual|: 1.595e-03   |deigs|: 4.228e-05  t[s]:   9116.08
	Linear fluid (dielectric constant: 78.4, screening length: 5.74355 Bohr) occupying 0.781288 of unit cell:	Completed after 9 iterations at t[s]:   9117.35
	FillingsUpdate:  mu: -0.244750400  nElectrons: 373.107522
	Linear fluid (dielectric constant: 78.4, screening length: 5.74355 Bohr) occupying 0.781274 of unit cell:	Completed after 10 iterations at t[s]:   9186.71
SCF: Cycle: 122   G: -2104.519548937274976   dG: +8.475e-06   |Residual|: 2.179e-03   |deigs|: 2.923e-05  t[s]:   9188.48
	Linear fluid (dielectric constant: 78.4, screening length: 5.74355 Bohr) occupying 0.781288 of unit cell:	Completed after 9 iterations at t[s]:   9189.82
	FillingsUpdate:  mu: -0.244750400  nElectrons: 373.099524
	Linear fluid (dielectric constant: 78.4, screening length: 5.74355 Bohr) occupying 0.781274 of unit cell:	Completed after 8 iterations at t[s]:   9245.20
SCF: Cycle: 123   G: -2104.519559542130537   dG: -1.060e-05   |Residual|: 1.859e-03   |deigs|: 1.654e-05  t[s]:   9246.64
	Linear fluid (dielectric constant: 78.4, screening length: 5.74355 Bohr) occupying 0.781300 of unit cell:	Completed after 8 iterations at t[s]:   9247.77
	FillingsUpdate:  mu: -0.244750400  nElectrons: 373.089980
	Linear fluid (dielectric constant: 78.4, screening length: 5.74355 Bohr) occupying 0.781274 of unit cell:	Completed after 6 iterations at t[s]:   9318.45
SCF: Cycle: 124   G: -2104.519555269054308   dG: +4.273e-06   |Residual|: 2.349e-03   |deigs|: 4.474e-05  t[s]:   9319.95
	Linear fluid (dielectric constant: 78.4, screening length: 5.74355 Bohr) occupying 0.781298 of unit cell:	Completed after 3 iterations at t[s]:   9320.75
	FillingsUpdate:  mu: -0.244750400  nElectrons: 373.104969
	Linear fluid (dielectric constant: 78.4, screening length: 5.74355 Bohr) occupying 0.781274 of unit cell:	Completed after 8 iterations at t[s]:   9380.42
SCF: Cycle: 125   G: -2104.519561499460451   dG: -6.230e-06   |Residual|: 1.473e-03   |deigs|: 2.712e-05  t[s]:   9382.26
	Linear fluid (dielectric constant: 78.4, screening length: 5.74355 Bohr) occupying 0.781292 of unit cell:	Completed after 8 iterations at t[s]:   9383.49
	FillingsUpdate:  mu: -0.244750400  nElectrons: 373.106360
	Linear fluid (dielectric constant: 78.4, screening length: 5.74355 Bohr) occupying 0.781275 of unit cell:	Completed after 10 iterations at t[s]:   9442.63
SCF: Cycle: 126   G: -2104.519555034912173   dG: +6.465e-06   |Residual|: 1.879e-03   |deigs|: 2.777e-05  t[s]:   9444.41
	Linear fluid (dielectric constant: 78.4, screening length: 5.74355 Bohr) occupying 0.781298 of unit cell:	Completed after 9 iterations at t[s]:   9445.65
	FillingsUpdate:  mu: -0.244750400  nElectrons: 373.101596
	Linear fluid (dielectric constant: 78.4, screening length: 5.74355 Bohr) occupying 0.781275 of unit cell:	Completed after 10 iterations at t[s]:   9505.18
SCF: Cycle: 127   G: -2104.519561582016195   dG: -6.547e-06   |Residual|: 1.600e-03   |deigs|: 3.981e-05  t[s]:   9506.79
	Linear fluid (dielectric constant: 78.4, screening length: 5.74355 Bohr) occupying 0.781304 of unit cell:	Completed after 9 iterations at t[s]:   9508.01
	FillingsUpdate:  mu: -0.244750400  nElectrons: 373.105312
	Linear fluid (dielectric constant: 78.4, screening length: 5.74355 Bohr) occupying 0.781276 of unit cell:	Completed after 9 iterations at t[s]:   9575.49
SCF: Cycle: 128   G: -2104.519556509244012   dG: +5.073e-06   |Residual|: 1.889e-03   |deigs|: 3.158e-05  t[s]:   9577.48
[...]
    |320>  occupation: 5  eigenvalue: -0.791264
    |400>  occupation: 2  eigenvalue: -0.516384
    |410>  occupation: 0  eigenvalue: -0.312222
  lMax: 2  lLocal: 3  QijEcut: 6
  6 projectors sampled on a log grid with 607 points:
    l: 0  eig: -4.008819  rCut: 1.55
    l: 0  eig: -0.516386  rCut: 1.55
    l: 1  eig: -2.753096  rCut: 1.55
    l: 1  eig: -0.312226  rCut: 1.55
    l: 2  eig: -0.791264  rCut: 1.65
    l: 2  eig: -0.450000  rCut: 1.65
  Partial core density with radius 0.65
  Transforming core density to a uniform radial grid of dG=0.02 with 1296 points.
  Transforming local potential to a uniform radial grid of dG=0.02 with 1296 points.
  Transforming nonlocal projectors to a uniform radial grid of dG=0.02 with 432 points.
  Transforming density augmentations to a uniform radial grid of dG=0.02 with 1296 points.
  Transforming atomic orbitals to a uniform radial grid of dG=0.02 with 432 points.
  Core radius for overlap checks: 1.65 bohrs.

Reading pseudopotential file '/home/guoxy/vasp/jdftx-1.5.0/build/pseudopotentials/GBRV/s_pbe.uspp':
  Title: S.  Created by USPP 7.3.6 on 1-4-15
  Reference state energy: -11.898476.  6 valence electrons in orbitals:
    |300>  occupation: 2  eigenvalue: -0.634167
    |310>  occupation: 4  eigenvalue: -0.257568
  lMax: 2  lLocal: 3  QijEcut: 6
  6 projectors sampled on a log grid with 635 points:
    l: 0  eig: -0.634161  rCut: 1.5
    l: 0  eig: 1.500000  rCut: 1.5
    l: 1  eig: -0.257567  rCut: 1.5
    l: 1  eig: 1.500000  rCut: 1.5
    l: 2  eig: -1.000000  rCut: 1.5
    l: 2  eig: 1.500000  rCut: 1.5
  Partial core density with radius 1.15
  Transforming core density to a uniform radial grid of dG=0.02 with 1296 points.
  Transforming local potential to a uniform radial grid of dG=0.02 with 1296 points.
  Transforming nonlocal projectors to a uniform radial grid of dG=0.02 with 432 points.
  Transforming density augmentations to a uniform radial grid of dG=0.02 with 1296 points.
  Transforming atomic orbitals to a uniform radial grid of dG=0.02 with 432 points.
  Core radius for overlap checks: 1.50 bohrs.

Initialized 2 species with 36 total atoms.

Folded 1 k-points by 2x4x1 to 8 k-points.

---------- Setting up k-points, bands, fillings ----------
Adding inversion symmetry to k-mesh for non-inversion-symmetric unit cell.
Reduced to 6 k-points under symmetry. 
Computing the number of bands and number of electrons
Reading initial fillings from file NbTe2.fillings.
nElectrons: 373.100763   nBands: 288   nStates: 6

----- Setting up reduced wavefunction bases (one per k-point) -----
average nbasis = 62744.875 , ideal nbasis = 62742.904

---------- Setting up coulomb interaction ----------
Fluid mode embedding: using embedded box, but periodic Coulomb kernel.
(Fluid response is responsible for (approximate) separation between periodic images.)
Setting up double-sized grid for truncated Coulomb potentials:
R = 
[    29.7807          0          0  ]
[          0    14.8832          0  ]
[          0          0    66.2712  ]
unit cell volume = 29373.5
G =
[   0.210982          0          0  ]
[          0   0.422167          0  ]
[          0          0  0.0948102  ]
Chosen fftbox size, S = [  140  70  320  ]
Integer grid location selected as the embedding center:
   Grid: [  0  0  80  ]
   Lattice: [  0  0  0.5  ]
   Cartesian: [  0  0  16.5678  ]
Constructing Wigner-Seitz cell: 6 faces (6 quadrilaterals, 0 hexagons)
Range-separation parameter for embedded mesh potentials due to point charges: 0.581854 bohrs.

Initializing van der Waals corrections
	NOTE: vdW corrections apply only for interactions with fluid.
	Fe:  C6:  187.33 Eh-a0^6  R0: 2.952 a0
	 S:  C6:   96.61 Eh-a0^6  R0: 3.180 a0

---------- Setting up ewald sum ----------
Optimum gaussian width for ewald sums = 6.773995 bohr.
Real space sum over 585 unit cells with max indices [  4  6  2  ]
Reciprocal space sum over 6171 terms with max indices [  8  5  16  ]

---------- Allocating electronic variables ----------
Initializing wave functions:  reading from 'NbTe2.wfns'
----- createFluidSolver() ----- (Fluid-side solver setup)
   Initializing fluid molecule 'H2O'
     Initializing site 'O'
       Electron density: proportional to exp(-r/0.36935)*erfc((r-0.51523)/0.36823) with norm 6.826
       Charge density: gaussian nuclear width 0.478731 with net site charge 0.826
       Polarizability: cuspless exponential with width 0.32 and norm 3.73
       Hard sphere radius: 2.57003 bohrs
       Positions in reference frame:
         [ +0.000000 +0.000000 +0.000000 ]
     Initializing site 'H'
       Electron density: proportional to exp(-r/0.34641)*erfc((r-0)/0.390882) with norm 0.587
       Charge density: gaussian nuclear width 0.377945 with net site charge -0.413
       Polarizability: cuspless exponential with width 0.39 and norm 3.3
       Positions in reference frame:
         [ +0.000000 -1.441945 +1.122523 ]
         [ +0.000000 +1.441945 +1.122523 ]
     Net charge: 0   dipole magnitude: 0.927204
     Initializing spherical shell mfKernel with radius 2.61727 Bohr
     deltaS corrections:
       site 'O': -7.54299
       site 'H': -6.83917
   Initializing fluid molecule 'Na+'
     Initializing site 'Na'
       Electron density: proportional to exp(-r/0.19682)*erfc((r-0.71491)/0.41314) with norm 8.1383
       Charge density: gaussian nuclear width 0.365347 with net site charge -1
       Hard sphere radius: 1.86327 bohrs
       Positions in reference frame:
         [ +0.000000 +0.000000 +0.000000 ]
     Net charge: -1   dipole magnitude: 0
     Initializing gaussian mfKernel with width: 1.55004 Bohr
     deltaS corrections:
       site 'Na': -22.3555
   Initializing fluid molecule 'F-'
     Initializing site 'F'
       Electron density: proportional to exp(-r/0.38886)*erfc((r-0)/0.438782) with norm 8
       Charge density: gaussian nuclear width 0.374796 with net site charge 1
       Hard sphere radius: 2.39995 bohrs
       Positions in reference frame:
         [ +0.000000 +0.000000 +0.000000 ]
     Net charge: 1   dipole magnitude: 0
     Initializing gaussian mfKernel with width: 1.59012 Bohr
     deltaS corrections:
       site 'F': -9.04335

Correction to mu due to finite nuclear width = -0.0127008
   Cavity determined by nc: 0.00142 and sigma: 0.707107
   Nonlocal vdW cavity from gaussian model electron density with norm = 8 and sigma = 0.993594 bohr
   Charge asymmetry in cavity with sensitivity pCavity = 36.5 e-bohr/Eh
   Electrostatic cavity expanded by eta = 1.46 bohrs
   Weighted density cavitation model constrained by Nbulk: 0.0049383 bohr^-3, Pvap: 3.14029 kPa, Rvdw: 2.61727 bohr and sigmaBulk: 4.62e-05 Eh/bohr^2 at T: 298 K.
   Weighted density dispersion model using vdW pair potentials with single solvent site with sqrtC6eff: 0.77 SI.
Reading fluid state from 'NbTe2.fluidState'


---- Citations for features of the code used in this run ----

   Software package:
      R. Sundararaman, K. Letchworth-Weaver, K.A. Schwarz, D. Gunceler, Y. Ozhabes and T.A. Arias, 'JDFTx: software for joint density-functional theory', SoftwareX 6, 278 (2017)

   gga-PBE exchange-correlation functional:
      J.P. Perdew, K. Burke and M. Ernzerhof, Phys. Rev. Lett. 77, 3865 (1996)

   Pseudopotentials:
      KF Garrity, JW Bennett, KM Rabe and D Vanderbilt, Comput. Mater. Sci. 81, 446 (2014)

   Truncated Coulomb potentials:
      R. Sundararaman and T.A. Arias, Phys. Rev. B 87, 165122 (2013)

   Van der Waals correction pair-potentials:
      S. Grimme, J. Comput. Chem. 27, 1787 (2006)

   Charge-asymmetric nonlocally-determined local-electric (CANDLE) solvation model:
      R. Sundararaman and W.A. Goddard III, J. Chem. Phys. 142, 064107 (2015)

   Total energy minimization with Auxiliary Hamiltonian:
      C. Freysoldt, S. Boeck, and J. Neugebauer, Phys. Rev. B 79, 241103(R) (2009)

   Grand-canonical (fixed-potential) DFT:
      R. Sundararaman, W. A. Goddard III and T. A. Arias, J. Chem. Phys. 146, 114104 (2017)

This list may not be complete. Please suggest additional citations or
report any other bugs at https://github.com/shankar1729/jdftx/issues

Initialization completed successfully at t[s]:     39.70

Shifting auxilliary hamiltonian by -0.000000 to set nElectrons=373.100763
	Linear fluid (dielectric constant: 78.4, screening length: 5.74355 Bohr) occupying 0.781271 of unit cell:	Completed after 8 iterations at t[s]:     47.50

-------- Electronic minimization -----------
	Linear fluid (dielectric constant: 78.4, screening length: 5.74355 Bohr) occupying 0.781271 of unit cell:	Completed after 0 iterations at t[s]:     56.21
	FillingsUpdate:  mu: -0.244750400  nElectrons: 373.100763
ElecMinimize: Iter:   0  G: -2104.519569126553051  |grad|_K:  1.206e-06  alpha:  1.000e+00
	Linear fluid (dielectric constant: 78.4, screening length: 5.74355 Bohr) occupying 0.781255 of unit cell:	Completed after 14 iterations at t[s]:    115.07
	Linear fluid (dielectric constant: 78.4, screening length: 5.74355 Bohr) occupying 0.781270 of unit cell:	Completed after 14 iterations at t[s]:    130.93
	FillingsUpdate:  mu: -0.244750400  nElectrons: 373.091546
	SubspaceRotationAdjust: set factor to 0.634
ElecMinimize: Iter:   1  G: -2104.519572991143377  |grad|_K:  1.147e-07  alpha:  2.420e-02  linmin:  1.373e-04  t[s]:    149.72
	Linear fluid (dielectric constant: 78.4, screening length: 5.74355 Bohr) occupying 0.781270 of unit cell:	Completed after 0 iterations at t[s]:    166.53
ElecMinimize: 	Predicted alpha/alphaT>3.000000, increasing alphaT to 7.260570e-02.
	Linear fluid (dielectric constant: 78.4, screening length: 5.74355 Bohr) occupying 0.781270 of unit cell:	Completed after 2 iterations at t[s]:    181.62
	Linear fluid (dielectric constant: 78.4, screening length: 5.74355 Bohr) occupying 0.781270 of unit cell:	Completed after 0 iterations at t[s]:    197.51
	FillingsUpdate:  mu: -0.244750400  nElectrons: 373.091449
	SubspaceRotationAdjust: set factor to 0.382
ElecMinimize: Iter:   2  G: -2104.519573019709696  |grad|_K:  8.283e-08  alpha:  3.858e-02  linmin:  3.859e-03  t[s]:    216.64
	Linear fluid (dielectric constant: 78.4, screening length: 5.74355 Bohr) occupying 0.781270 of unit cell:	Completed after 0 iterations at t[s]:    232.17
ElecMinimize: 	Predicted alpha/alphaT>3.000000, increasing alphaT to 1.157432e-01.
	Linear fluid (dielectric constant: 78.4, screening length: 5.74355 Bohr) occupying 0.781270 of unit cell:	Completed after 2 iterations at t[s]:    246.41
	Linear fluid (dielectric constant: 78.4, screening length: 5.74355 Bohr) occupying 0.781270 of unit cell:	Completed after 0 iterations at t[s]:    261.32
	FillingsUpdate:  mu: -0.244750400  nElectrons: 373.090625
	SubspaceRotationAdjust: set factor to 0.227
ElecMinimize: Iter:   3  G: -2104.519573059278628  |grad|_K:  2.069e-08  alpha:  8.553e-02  linmin: -3.063e-03  t[s]:    279.62
	Linear fluid (dielectric constant: 78.4, screening length: 5.74355 Bohr) occupying 0.781270 of unit cell:	Completed after 0 iterations at t[s]:    296.75
ElecMinimize: 	Predicted alpha/alphaT>3.000000, increasing alphaT to 2.565954e-01.
	Linear fluid (dielectric constant: 78.4, screening length: 5.74355 Bohr) occupying 0.781270 of unit cell:	Completed after 0 iterations at t[s]:    312.23
ElecMinimize: 	Predicted alpha/alphaT>3.000000, increasing alphaT to 7.697862e-01.
	Linear fluid (dielectric constant: 78.4, screening length: 5.74355 Bohr) occupying 0.781270 of unit cell:	Completed after 2 iterations at t[s]:    327.44
	Linear fluid (dielectric constant: 78.4, screening length: 5.74355 Bohr) occupying 0.781270 of unit cell:	Completed after 1 iterations at t[s]:    342.86
	FillingsUpdate:  mu: -0.244750400  nElectrons: 373.090295
	SubspaceRotationAdjust: set factor to 0.15
ElecMinimize: Iter:   4  G: -2104.519573083395244  |grad|_K:  5.611e-08  alpha:  1.837e-01  linmin:  4.034e-03  t[s]:    361.06
ElecMinimize: 	Bad step direction: g.d > 0.
ElecMinimize: 	Undoing step.
	Linear fluid (dielectric constant: 78.4, screening length: 5.74355 Bohr) occupying 0.781270 of unit cell:	Completed after 0 iterations at t[s]:    377.25
ElecMinimize: 	Step failed: resetting search direction.
	FillingsUpdate:  mu: -0.244750400  nElectrons: 373.090295
	SubspaceRotationAdjust: set factor to 0.112
	SubspaceRotationAdjust: resetting CG because factor has changed by 0.112061
	Linear fluid (dielectric constant: 78.4, screening length: 5.74355 Bohr) occupying 0.781270 of unit cell:	Completed after 0 iterations at t[s]:    403.59
ElecMinimize: 	State modified externally: resetting search direction.
ElecMinimize: Iter:   5  G: -2104.519573083402975  |grad|_K:  4.414e-08  alpha:  0.000e+00
	Linear fluid (dielectric constant: 78.4, screening length: 5.74355 Bohr) occupying 0.781270 of unit cell:	Completed after 2 iterations at t[s]:    438.36
	Linear fluid (dielectric constant: 78.4, screening length: 5.74355 Bohr) occupying 0.781270 of unit cell:	Completed after 0 iterations at t[s]:    453.72
ElecMinimize: 	Step increased G by 6.479240e-09, reducing alpha to 5.911870e-03.
	Linear fluid (dielectric constant: 78.4, screening length: 5.74355 Bohr) occupying 0.781270 of unit cell:	Completed after 0 iterations at t[s]:    485.84
	FillingsUpdate:  mu: -0.244750400  nElectrons: 373.090302
	SubspaceRotationAdjust: set factor to 0.0529
ElecMinimize: Iter:   6  G: -2104.519573091079110  |grad|_K:  3.157e-08  alpha:  5.912e-03  linmin:  2.195e-02  t[s]:    503.80
ElecMinimize: Converged (|Delta G|<1.000000e-08 for 2 iters).
Setting wave functions to eigenvectors of Hamiltonian

# Ionic positions in lattice coordinates:
ion Fe   0.443593097077793   0.268152485695685   0.496257617428186 0
ion Fe   0.943593097077793   0.268152485695685   0.496257617428186 0
ion Fe   0.389824010007845   0.571333191039078   0.496408581885079 0
ion Fe   0.889824010007845   0.571333191039078   0.496408581885079 0
ion Fe   0.345096594904008   0.875703133669953   0.504207358388182 0
ion Fe   0.845096594904008   0.875703133669953   0.504207358388182 0
ion Fe   0.291379679768419   0.178827257460754   0.504163534924290 0
ion Fe   0.791379679768419   0.178827257460754   0.504163534924290 0
ion Fe   0.041382611295849   0.678819965894555   0.496459378337488 0
ion Fe   0.541382611295850   0.678819965894555   0.496459378337488 0
ion Fe   0.095096555859223   0.375700529830229   0.496381534050826 0
ion Fe   0.595096555859223   0.375700529830229   0.496381534050826 0
ion Fe   0.139856959268164   0.071312212572021   0.504284244150711 0
ion Fe   0.639856959268165   0.071312212572021   0.504284244150711 0
ion Fe   0.193545927880919   0.768115789023632   0.504302403832356 0
ion Fe   0.693545927880919   0.768115789023632   0.504302403832356 0
ion S   0.492434441037722   0.473423431538421   0.567189044399937 0
ion S   0.992434441037722   0.473423431538421   0.567189044399937 0
ion S   0.392198712902455   0.081532018633743   0.572051686650139 0
ion S   0.892198712902455   0.081532018633743   0.572051686650139 0
ion S   0.342788801650252   0.365652612121885   0.428422866310662 0
ion S   0.842788801650252   0.365652612121885   0.428422866310662 0
ion S   0.296441107843432   0.674072035999459   0.572137107556185 0
ion S   0.796441107843432   0.674072035999459   0.572137107556185 0
ion S   0.242433550652833   0.973412474323702   0.433449244808254 0
ion S   0.742433550652833   0.973412474323702   0.433449244808254 0
ion S   0.046498786129616   0.173914427324847   0.428506213739666 0
ion S   0.546498786129616   0.173914427324847   0.428506213739666 0
ion S   0.092830913086918   0.865614028336155   0.572215896712265 0
ion S   0.592830913086918   0.865614028336155   0.572215896712265 0
ion S   0.142104190923536   0.581564672972591   0.428483660570437 0
ion S   0.642104190923537   0.581564672972591   0.428483660570437 0
ion S   0.188553013437482   0.273065060399839   0.572068202951332 0
ion S   0.688553013437482   0.273065060399839   0.572068202951332 0
ion S   0.438525087621706   0.772942673163446   0.428540136251348 0
ion S   0.938525087621706   0.772942673163446   0.428540136251348 0


# Forces in Lattice coordinates:
force Fe  -0.043829260886252  -0.007575453966355  -0.025735162846446 0
force Fe  -0.043829260886252  -0.007575453966355  -0.025735162846446 0
force Fe  -0.043006021273498   0.010599419899687  -0.023213338011912 0
force Fe  -0.043006021273498   0.010599419899687  -0.023213338011912 0
force Fe   0.024131939051039  -0.021381787028438   0.056878160358187 0
force Fe   0.024131939051039  -0.021381787028438   0.056878160358187 0
force Fe   0.059847817531775   0.027050315413644   0.047834323020526 0
force Fe   0.059847817531775   0.027050315413644   0.047834323020526 0
force Fe   0.049761269835091   0.027116662602826  -0.020573205465223 0
force Fe   0.049761269835091   0.027116662602826  -0.020573205465223 0
force Fe   0.023030035522854  -0.020472180496465  -0.024871173530524 0
force Fe   0.023030035522854  -0.020472180496465  -0.024871173530524 0
force Fe  -0.039390742642941   0.011643895688473   0.043540930884921 0
force Fe  -0.039390742642941   0.011643895688473   0.043540930884921 0
force Fe  -0.035870796827895  -0.008958700129202   0.050152936729416 0
force Fe  -0.035870796827895  -0.008958700129202   0.050152936729416 0
force S   0.001638033623707  -0.000751083344367  -0.003881234899684 0
force S   0.001638033623707  -0.000751083344367  -0.003881234899684 0
force S  -0.046503076429683   0.008534115664306  -0.108769419559441 0
force S  -0.046503076429683   0.008534115664306  -0.108769419559441 0
force S   0.043826253134644  -0.010552560908516   0.109629338963040 0
force S   0.043826253134644  -0.010552560908516   0.109629338963040 0
force S   0.020698688992545   0.021953876928076  -0.108125554782714 0
force S   0.020698688992545   0.021953876928076  -0.108125554782714 0
force S   0.000295782930510   0.000366155264207   0.001819335937183 0
force S   0.000295782930510   0.000366155264207   0.001819335937183 0
force S   0.019658959387350   0.023347153548025   0.106517642930118 0
force S   0.019658959387350   0.023347153548025   0.106517642930118 0
force S   0.040786541385304  -0.011421066007814  -0.107946258474305 0
force S   0.040786541385304  -0.011421066007814  -0.107946258474305 0
force S  -0.043926675613885   0.007806620289963   0.110008608931272 0
force S  -0.043926675613885   0.007806620289963   0.110008608931272 0
force S  -0.019151364438887  -0.021875756987960  -0.106128828030949 0
force S  -0.019151364438887  -0.021875756987960  -0.106128828030949 0
force S  -0.018518480604910  -0.021632726381383   0.108083682737464 0
force S  -0.018518480604910  -0.021632726381383   0.108083682737464 0

# Energy components:
   A_diel =       -0.1865218394823088
   Eewald =     8130.6269922254532503
       EH =     9910.4009388555004989
     Eloc =   -20691.7968257878237637
      Enl =      329.6805346381253798
      Exc =     -317.0325958115317917
 Exc_core =       47.9239769302382683
       KE =      394.5743564045450853
  MuShift =        0.0369555606381832
-------------------------------------
     Etot =    -2195.7721888243372632
       TS =        0.0613848185529175
-------------------------------------
        F =    -2195.8335736428903147
      muN =      -91.3140005518113611
-------------------------------------
        G =    -2104.5195730910791099

IonicMinimize: Iter:   0  G: -2104.519573091079110  |grad|_K:  0.000e+00  t[s]:    515.00
IonicMinimize: Converged (|grad|_K<1.000000e-04).

#--- Lowdin population analysis ---
# oxidation-state Fe -0.363 -0.363 -0.361 -0.361 -0.360 -0.360 -0.361 -0.361 -0.361 -0.361 -0.363 -0.363 -0.361 -0.361 -0.359 -0.359
# oxidation-state S +0.702 +0.702 +0.593 +0.593 +0.593 +0.593 +0.593 +0.593 +0.702 +0.702 +0.593 +0.593 +0.593 +0.593 +0.593 +0.593 +0.593 +0.593 +0.593 +0.593


Dumping 'NbTe2.fillings' ... done
Dumping 'NbTe2.wfns' ... done
Dumping 'NbTe2.fluidState' ... done
Dumping 'NbTe2.eigenvals' ... done
End date and time: Thu Jul  9 20:45:53 2020  (Duration: 0-0:08:42.90)
Done!
