
*************** JDFTx 1.5.0  ***************

Start date and time: Sun Jul  5 07:00:58 2020
Executable jdftx_gpu with command-line: -i Neutral.in -o Neutral.out
Running on hosts (process indices):  amax (0)
Divided in process groups (process indices):  0 (0)
gpuInit: Found compatible cuda device 0 'Tesla K80'
gpuInit: Selected device 0
Resource initialization completed at t[s]:     14.95
Run totals: 1 processes, 24 threads, 1 GPUs


Input parsed successfully to the following command list (including defaults):

basis kpoint-dependent
cache-projectors no
coords-type Lattice
core-overlap-check none
coulomb-interaction Slab 001
coulomb-truncation-embed 0 0 0.5
davidson-band-ratio 1.1
dump End State
dump-name NbTe2.$VAR
elec-cutoff 20 100
elec-eigen-algo Davidson
elec-ex-corr gga-PBE
elec-smearing Gauss 0.0073499
electronic-minimize  \
	dirUpdateScheme      FletcherReeves \
	linminMethod         DirUpdateRecommended \
	nIterations          100 \
	history              15 \
	knormThreshold       0 \
	energyDiffThreshold  1e-08 \
	nEnergyDiff          2 \
	alphaTstart          1 \
	alphaTmin            1e-10 \
	updateTestStepSize   yes \
	alphaTreduceFactor   0.1 \
	alphaTincreaseFactor 3 \
	nAlphaAdjustMax      3 \
	wolfeEnergy          0.0001 \
	wolfeGradient        0.9 \
	fdTest               no
electronic-scf  \
	nIterations	500 \
	energyDiffThreshold	1e-08 \
	residualThreshold	1e-07 \
	mixFraction	0.5 \
	qMetric	0.8 \
	history	10 \
	nEigSteps	2 \
	eigDiffThreshold	1e-08 \
	mixedVariable	Density \
	qKerker	0.8 \
	qKappa	-1 \
	verbose	no \
	mixFractionMag	1.5
exchange-regularization WignerSeitzTruncated
fluid LinearPCM 298.000000 1.013250
fluid-anion F- 1 MeanFieldLJ \
	epsBulk 1 \
	pMol 0 \
	epsInf 1 \
	Pvap 0 \
	sigmaBulk 0 \
	Rvdw 2.24877 \
	Res 0 \
	tauNuc 343133
fluid-cation Na+ 1 MeanFieldLJ \
	epsBulk 1 \
	pMol 0 \
	epsInf 1 \
	Pvap 0 \
	sigmaBulk 0 \
	Rvdw 2.19208 \
	Res 0 \
	tauNuc 343133
fluid-ex-corr lda-TF lda-PZ
fluid-gummel-loop 10 1.000000e-05
fluid-minimize  \
	dirUpdateScheme      PolakRibiere \
	linminMethod         DirUpdateRecommended \
	nIterations          400 \
	history              15 \
	knormThreshold       1e-11 \
	energyDiffThreshold  0 \
	nEnergyDiff          2 \
	alphaTstart          1 \
	alphaTmin            1e-10 \
	updateTestStepSize   yes \
	alphaTreduceFactor   0.1 \
	alphaTincreaseFactor 3 \
	nAlphaAdjustMax      6 \
	wolfeEnergy          0.0001 \
	wolfeGradient        0.9 \
	fdTest               no
fluid-solvent H2O 55.338 ScalarEOS \
	epsBulk 78.4 \
	pMol 0.92466 \
	epsInf 1.77 \
	Pvap 1.06736e-10 \
	sigmaBulk 4.62e-05 \
	Rvdw 2.61727 \
	Res 1.42 \
	tauNuc 343133 \
	poleEl 15 7 1
forces-output-coords Positions
initial-state NbTe2.$VAR
ion Fe   0.443593097077793   0.268152485695685   0.496257617428186 0
ion Fe   0.943593097077793   0.268152485695685   0.496257617428186 0
ion Fe   0.389824010007845   0.571333191039078   0.496408581885079 0
ion Fe   0.889824010007845   0.571333191039078   0.496408581885079 0
ion Fe   0.345096594904008   0.875703133669953   0.504207358388182 0
ion Fe   0.845096594904008   0.875703133669953   0.504207358388182 0
ion Fe   0.291379679768419   0.178827257460754   0.504163534924290 0
ion Fe   0.791379679768419   0.178827257460754   0.504163534924290 0
ion Fe   0.041382611295849   0.678819965894555   0.496459378337488 0
ion Fe   0.541382611295849   0.678819965894555   0.496459378337488 0
ion Fe   0.095096555859223   0.375700529830229   0.496381534050826 0
ion Fe   0.595096555859223   0.375700529830229   0.496381534050826 0
ion Fe   0.139856959268165   0.071312212572021   0.504284244150711 0
ion Fe   0.639856959268165   0.071312212572021   0.504284244150711 0
ion Fe   0.193545927880919   0.768115789023632   0.504302403832356 0
ion Fe   0.693545927880919   0.768115789023632   0.504302403832356 0
ion S   0.492434441037722   0.473423431538421   0.567189044399937 0
ion S   0.992434441037722   0.473423431538421   0.567189044399937 0
ion S   0.392198712902455   0.081532018633743   0.572051686650139 0
ion S   0.892198712902455   0.081532018633743   0.572051686650139 0
ion S   0.342788801650252   0.365652612121885   0.428422866310662 0
ion S   0.842788801650252   0.365652612121885   0.428422866310662 0
ion S   0.296441107843432   0.674072035999459   0.572137107556185 0
ion S   0.796441107843432   0.674072035999459   0.572137107556185 0
ion S   0.242433550652833   0.973412474323702   0.433449244808254 0
ion S   0.742433550652833   0.973412474323702   0.433449244808254 0
ion S   0.046498786129616   0.173914427324847   0.428506213739666 0
ion S   0.546498786129616   0.173914427324847   0.428506213739666 0
ion S   0.092830913086918   0.865614028336155   0.572215896712265 0
ion S   0.592830913086918   0.865614028336155   0.572215896712265 0
ion S   0.142104190923536   0.581564672972591   0.428483660570437 0
ion S   0.642104190923536   0.581564672972591   0.428483660570437 0
ion S   0.188553013437482   0.273065060399839   0.572068202951332 0
ion S   0.688553013437482   0.273065060399839   0.572068202951332 0
ion S   0.438525087621706   0.772942673163446   0.428540136251348 0
ion S   0.938525087621706   0.772942673163446   0.428540136251348 0
ion-species GBRV/$ID_pbe.uspp
ion-width Ecut
ionic-minimize  \
	dirUpdateScheme      L-BFGS \
	linminMethod         DirUpdateRecommended \
	nIterations          0 \
	history              15 \
	knormThreshold       0.0001 \
	energyDiffThreshold  1e-06 \
	nEnergyDiff          2 \
	alphaTstart          1 \
	alphaTmin            1e-10 \
	updateTestStepSize   yes \
	alphaTreduceFactor   0.1 \
	alphaTincreaseFactor 3 \
	nAlphaAdjustMax      3 \
	wolfeEnergy          0.0001 \
	wolfeGradient        0.9 \
	fdTest               no
kpoint   0.000000000000   0.000000000000   0.000000000000  1.00000000000000
kpoint-folding 2 4 1 
latt-move-scale 1 1 1
latt-scale 1 1 1 
lattice Triclinic 29.7807 14.8832 33.1356 90 90 90
lattice-minimize  \
	dirUpdateScheme      L-BFGS \
	linminMethod         DirUpdateRecommended \
	nIterations          0 \
	history              15 \
	knormThreshold       0 \
	energyDiffThreshold  1e-06 \
	nEnergyDiff          2 \
	alphaTstart          1 \
	alphaTmin            1e-10 \
	updateTestStepSize   yes \
	alphaTreduceFactor   0.1 \
	alphaTincreaseFactor 3 \
	nAlphaAdjustMax      3 \
	wolfeEnergy          0.0001 \
	wolfeGradient        0.9 \
	fdTest               no
lcao-params -1 1e-06 0.0073499
pcm-variant CANDLE
spintype no-spin
subspace-rotation-factor 1 yes
symmetries automatic
symmetry-threshold 0.0001



---------- Setting up symmetries ----------

Found 8 point-group symmetries of the bravais lattice
Found 2 space-group symmetries with basis
Applied RMS atom displacement 2.0247e-15 bohrs to make symmetries exact.

---------- Initializing the Grid ----------
R = 
[    29.7807          0          0  ]
[          0    14.8832          0  ]
[          0          0    33.1356  ]
unit cell volume = 14686.7
G =
[   0.210982          0          0  ]
[          0   0.422167          0  ]
[          0          0    0.18962  ]
Minimum fftbox size, Smin = [  136  68  152  ]
Chosen fftbox size, S = [  140  70  160  ]

---------- Initializing tighter grid for wavefunction operations ----------
R = 
[    29.7807          0          0  ]
[          0    14.8832          0  ]
[          0          0    33.1356  ]
unit cell volume = 14686.7
G =
[   0.210982          0          0  ]
[          0   0.422167          0  ]
[          0          0    0.18962  ]
Minimum fftbox size, Smin = [  120  60  136  ]
Chosen fftbox size, S = [  120  60  140  ]

---------- Exchange Correlation functional ----------
Initalized PBE GGA exchange.
Initalized PBE GGA correlation.

---------- Setting up pseudopotentials ----------
Width of ionic core gaussian charges (only for fluid interactions / plotting) set to 0.397384

Reading pseudopotential file '/home/guoxy/vasp/jdftx-1.5.0/build/pseudopotentials/GBRV/fe_pbe.uspp':
  Title: Fe.  Created by USPP 7.3.6 on 15-6-15
  Reference state energy: -124.316937.  16 valence electrons in orbitals:
    |300>  occupation: 2  eigenvalue: -4.008817
    |310>  occupation: 6  eigenvalue: -2.753096
    |320>  occupation: 5  eigenvalue: -0.791264
    |400>  occupation: 2  eigenvalue: -0.516384
    |410>  occupation: 0  eigenvalue: -0.312222
  lMax: 2  lLocal: 3  QijEcut: 6
  6 projectors sampled on a log grid with 607 points:
    l: 0  eig: -4.008819  rCut: 1.55
    l: 0  eig: -0.516386  rCut: 1.55
    l: 1  eig: -2.753096  rCut: 1.55
    l: 1  eig: -0.312226  rCut: 1.55
    l: 2  eig: -0.791264  rCut: 1.65
    l: 2  eig: -0.450000  rCut: 1.65
  Partial core density with radius 0.65
  Transforming core density to a uniform radial grid of dG=0.02 with 1296 points.
  Transforming local potential to a uniform radial grid of dG=0.02 with 1296 points.
  Transforming nonlocal projectors to a uniform radial grid of dG=0.02 with 432 points.
  Transforming density augmentations to a uniform radial grid of dG=0.02 with 1296 points.
  Transforming atomic orbitals to a uniform radial grid of dG=0.02 with 432 points.
  Core radius for overlap checks: 1.65 bohrs.

Reading pseudopotential file '/home/guoxy/vasp/jdftx-1.5.0/build/pseudopotentials/GBRV/s_pbe.uspp':
  Title: S.  Created by USPP 7.3.6 on 1-4-15
  Reference state energy: -11.898476.  6 valence electrons in orbitals:
    |300>  occupation: 2  eigenvalue: -0.634167
    |310>  occupation: 4  eigenvalue: -0.257568
  lMax: 2  lLocal: 3  QijEcut: 6
  6 projectors sampled on a log grid with 635 points:
    l: 0  eig: -0.634161  rCut: 1.5
    l: 0  eig: 1.500000  rCut: 1.5
    l: 1  eig: -0.257567  rCut: 1.5
    l: 1  eig: 1.500000  rCut: 1.5
    l: 2  eig: -1.000000  rCut: 1.5
    l: 2  eig: 1.500000  rCut: 1.5
  Partial core density with radius 1.15
  Transforming core density to a uniform radial grid of dG=0.02 with 1296 points.
  Transforming local potential to a uniform radial grid of dG=0.02 with 1296 points.
  Transforming nonlocal projectors to a uniform radial grid of dG=0.02 with 432 points.
  Transforming density augmentations to a uniform radial grid of dG=0.02 with 1296 points.
  Transforming atomic orbitals to a uniform radial grid of dG=0.02 with 432 points.
  Core radius for overlap checks: 1.50 bohrs.

Initialized 2 species with 36 total atoms.

Folded 1 k-points by 2x4x1 to 8 k-points.

---------- Setting up k-points, bands, fillings ----------
Adding inversion symmetry to k-mesh for non-inversion-symmetric unit cell.
Reduced to 6 k-points under symmetry. 
Computing the number of bands and number of electrons
Calculating initial fillings.
nElectrons: 376.000000   nBands: 288   nStates: 6

----- Setting up reduced wavefunction bases (one per k-point) -----
average nbasis = 62744.875 , ideal nbasis = 62742.904

---------- Setting up coulomb interaction ----------
Fluid mode embedding: using embedded box, but periodic Coulomb kernel.
(Fluid response is responsible for (approximate) separation between periodic images.)
Setting up double-sized grid for truncated Coulomb potentials:
R = 
[    29.7807          0          0  ]
[          0    14.8832          0  ]
[          0          0    66.2712  ]
unit cell volume = 29373.5
G =
[   0.210982          0          0  ]
[          0   0.422167          0  ]
[          0          0  0.0948102  ]
Chosen fftbox size, S = [  140  70  320  ]
Integer grid location selected as the embedding center:
   Grid: [  0  0  80  ]
   Lattice: [  0  0  0.5  ]
   Cartesian: [  0  0  16.5678  ]
Constructing Wigner-Seitz cell: 6 faces (6 quadrilaterals, 0 hexagons)
Range-separation parameter for embedded mesh potentials due to point charges: 0.581854 bohrs.

Initializing van der Waals corrections
	NOTE: vdW corrections apply only for interactions with fluid.
	Fe:  C6:  187.33 Eh-a0^6  R0: 2.952 a0
	 S:  C6:   96.61 Eh-a0^6  R0: 3.180 a0

---------- Setting up ewald sum ----------
Optimum gaussian width for ewald sums = 6.773995 bohr.
Real space sum over 585 unit cells with max indices [  4  6  2  ]
Reciprocal space sum over 6171 terms with max indices [  8  5  16  ]

---------- Allocating electronic variables ----------
Initializing wave functions:  linear combination of atomic orbitals
Fe pseudo-atom occupations:   s ( 2 0 )  p ( 6 0 )  d ( 8 )
S pseudo-atom occupations:   s ( 2 )  p ( 4 )
	FillingsUpdate:  mu: -1.319923131  nElectrons: 376.000000
LCAOMinimize: Iter:   0  F: -2030.9754456191988083  |grad|_K:  2.279e-02  alpha:  1.000e+00
	FillingsUpdate:  mu: +2.184648697  nElectrons: 376.000000
LCAOMinimize: Iter:   1  F: -2071.1815968788610007  |grad|_K:  2.538e-02  alpha:  3.977e-01  linmin:  2.038e-01  cgtest: -7.391e-01  t[s]:     82.56
LCAOMinimize: 	Bad step direction: g.d > 0.
LCAOMinimize: 	Undoing step.
LCAOMinimize: 	Step failed: resetting search direction.
	FillingsUpdate:  mu: +2.184648697  nElectrons: 376.000000
LCAOMinimize: Iter:   2  F: -2071.1815968788610007  |grad|_K:  2.538e-02  alpha:  0.000e+00
	FillingsUpdate:  mu: -0.174698144  nElectrons: 376.000000
LCAOMinimize: Iter:   3  F: -2192.6024402328735050  |grad|_K:  1.348e-03  alpha:  1.815e-01  linmin:  2.061e-01  cgtest: -4.860e-01  t[s]:    126.68
	FillingsUpdate:  mu: -0.178537882  nElectrons: 376.000000
LCAOMinimize: Iter:   4  F: -2192.6032938958387604  |grad|_K:  1.343e-03  alpha:  1.912e-02  linmin: -6.022e-07  cgtest:  9.743e-01  t[s]:    151.95
LCAOMinimize: 	Predicted alpha/alphaT>3.000000, increasing alphaT to 5.735484e-02.
LCAOMinimize: 	Predicted alpha/alphaT>3.000000, increasing alphaT to 1.720645e-01.
	FillingsUpdate:  mu: -0.103531403  nElectrons: 376.000000
LCAOMinimize: Iter:   5  F: -2192.6968955348347663  |grad|_K:  5.758e-04  alpha:  2.117e-01  linmin:  6.209e-02  cgtest: -1.691e-01  t[s]:    192.41
	FillingsUpdate:  mu: -0.105495475  nElectrons: 376.000000
LCAOMinimize: Iter:   6  F: -2192.7041460203745373  |grad|_K:  8.693e-04  alpha:  9.799e-02  linmin: -2.925e-04  cgtest:  9.736e-02  t[s]:    219.03
	FillingsUpdate:  mu: -0.116953037  nElectrons: 376.000000
LCAOMinimize: Iter:   7  F: -2192.7165567712986558  |grad|_K:  2.971e-04  alpha:  6.544e-02  linmin: -2.774e-05  cgtest: -5.356e-01  t[s]:    245.08
	FillingsUpdate:  mu: -0.120782878  nElectrons: 376.000000
LCAOMinimize: Iter:   8  F: -2192.7175483516261920  |grad|_K:  1.624e-04  alpha:  4.476e-02  linmin:  3.290e-05  cgtest: -2.001e-02  t[s]:    270.04
	FillingsUpdate:  mu: -0.124304512  nElectrons: 376.000000
LCAOMinimize: Iter:   9  F: -2192.7182150686348905  |grad|_K:  1.998e-04  alpha:  1.011e-01  linmin:  2.826e-04  cgtest: -3.398e-03  t[s]:    296.75
	FillingsUpdate:  mu: -0.126451234  nElectrons: 376.000000
LCAOMinimize: Iter:  10  F: -2192.7187752461995842  |grad|_K:  1.500e-04  alpha:  5.604e-02  linmin: -1.267e-04  cgtest:  1.736e-03  t[s]:    322.39
	FillingsUpdate:  mu: -0.125312348  nElectrons: 376.000000
LCAOMinimize: Iter:  11  F: -2192.7193867134415086  |grad|_K:  1.545e-04  alpha:  1.087e-01  linmin:  8.593e-04  cgtest: -1.050e-02  t[s]:    347.24
	FillingsUpdate:  mu: -0.123910008  nElectrons: 376.000000
LCAOMinimize: Iter:  12  F: -2192.7196172409380779  |grad|_K:  7.012e-05  alpha:  3.876e-02  linmin: -5.571e-04  cgtest:  4.874e-02  t[s]:    373.31
	FillingsUpdate:  mu: -0.122039737  nElectrons: 376.000000
LCAOMinimize: Iter:  13  F: -2192.7197145516902310  |grad|_K:  5.751e-05  alpha:  7.888e-02  linmin:  1.592e-04  cgtest: -2.988e-03  t[s]:    397.97
	FillingsUpdate:  mu: -0.121241161  nElectrons: 376.000000
LCAOMinimize: Iter:  14  F: -2192.7197470419268939  |grad|_K:  3.194e-05  alpha:  3.926e-02  linmin:  7.873e-05  cgtest:  5.360e-03  t[s]:    423.25
LCAOMinimize: 	Predicted alpha/alphaT>3.000000, increasing alphaT to 1.177737e-01.
	FillingsUpdate:  mu: -0.120474019  nElectrons: 376.000000
LCAOMinimize: Iter:  15  F: -2192.7197845005925956  |grad|_K:  4.627e-05  alpha:  1.465e-01  linmin: -5.847e-05  cgtest:  1.611e-04  t[s]:    455.01
	FillingsUpdate:  mu: -0.120247734  nElectrons: 376.000000
LCAOMinimize: Iter:  16  F: -2192.7198117805342008  |grad|_K:  3.386e-05  alpha:  5.089e-02  linmin:  1.335e-04  cgtest: -3.302e-03  t[s]:    480.66
	FillingsUpdate:  mu: -0.120897174  nElectrons: 376.000000
LCAOMinimize: Iter:  17  F: -2192.7198434619172076  |grad|_K:  2.913e-05  alpha:  1.104e-01  linmin: -6.541e-05  cgtest:  3.570e-03  t[s]:    505.19
	FillingsUpdate:  mu: -0.121210837  nElectrons: 376.000000
LCAOMinimize: Iter:  18  F: -2192.7198511239116669  |grad|_K:  1.487e-05  alpha:  3.600e-02  linmin: -4.277e-05  cgtest: -2.131e-03  t[s]:    531.26
	FillingsUpdate:  mu: -0.121657038  nElectrons: 376.000000
LCAOMinimize: Iter:  19  F: -2192.7198564827262999  |grad|_K:  1.243e-05  alpha:  9.672e-02  linmin: -2.468e-05  cgtest: -4.046e-04  t[s]:    557.76
	FillingsUpdate:  mu: -0.121782058  nElectrons: 376.000000
LCAOMinimize: Iter:  20  F: -2192.7198583238828178  |grad|_K:  1.023e-05  alpha:  4.755e-02  linmin: -2.828e-05  cgtest: -2.809e-04  t[s]:    582.95
	FillingsUpdate:  mu: -0.121825083  nElectrons: 376.000000
LCAOMinimize: Iter:  21  F: -2192.7198615401889583  |grad|_K:  9.365e-06  alpha:  1.227e-01  linmin:  5.046e-05  cgtest: -5.326e-04  t[s]:    608.97
	FillingsUpdate:  mu: -0.121764989  nElectrons: 376.000000
LCAOMinimize: Iter:  22  F: -2192.7198624559960081  |grad|_K:  6.459e-06  alpha:  4.168e-02  linmin: -3.063e-05  cgtest:  6.629e-04  t[s]:    635.07
	FillingsUpdate:  mu: -0.121599233  nElectrons: 376.000000
LCAOMinimize: Iter:  23  F: -2192.7198633087068629  |grad|_K:  4.110e-06  alpha:  8.156e-02  linmin: -4.095e-05  cgtest: -5.387e-04  t[s]:    660.69
LCAOMinimize: Converged (|Delta F|<1.000000e-06 for 2 iters).
----- createFluidSolver() ----- (Fluid-side solver setup)
   Initializing fluid molecule 'H2O'
     Initializing site 'O'
       Electron density: proportional to exp(-r/0.36935)*erfc((r-0.51523)/0.36823) with norm 6.826
       Charge density: gaussian nuclear width 0.478731 with net site charge 0.826
       Polarizability: cuspless exponential with width 0.32 and norm 3.73
       Hard sphere radius: 2.57003 bohrs
       Positions in reference frame:
         [ +0.000000 +0.000000 +0.000000 ]
     Initializing site 'H'
       Electron density: proportional to exp(-r/0.34641)*erfc((r-0)/0.390882) with norm 0.587
       Charge density: gaussian nuclear width 0.377945 with net site charge -0.413
       Polarizability: cuspless exponential with width 0.39 and norm 3.3
       Positions in reference frame:
         [ +0.000000 -1.441945 +1.122523 ]
         [ +0.000000 +1.441945 +1.122523 ]
     Net charge: 0   dipole magnitude: 0.927204
     Initializing spherical shell mfKernel with radius 2.61727 Bohr
     deltaS corrections:
       site 'O': -7.54299
       site 'H': -6.83917
   Initializing fluid molecule 'Na+'
     Initializing site 'Na'
       Electron density: proportional to exp(-r/0.19682)*erfc((r-0.71491)/0.41314) with norm 8.1383
       Charge density: gaussian nuclear width 0.365347 with net site charge -1
       Hard sphere radius: 1.86327 bohrs
       Positions in reference frame:
         [ +0.000000 +0.000000 +0.000000 ]
     Net charge: -1   dipole magnitude: 0
     Initializing gaussian mfKernel with width: 1.55004 Bohr
     deltaS corrections:
       site 'Na': -22.3555
   Initializing fluid molecule 'F-'
     Initializing site 'F'
       Electron density: proportional to exp(-r/0.38886)*erfc((r-0)/0.438782) with norm 8
       Charge density: gaussian nuclear width 0.374796 with net site charge 1
       Hard sphere radius: 2.39995 bohrs
       Positions in reference frame:
         [ +0.000000 +0.000000 +0.000000 ]
     Net charge: 1   dipole magnitude: 0
     Initializing gaussian mfKernel with width: 1.59012 Bohr
     deltaS corrections:
       site 'F': -9.04335

Correction to mu due to finite nuclear width = -0.0127008
   Cavity determined by nc: 0.00142 and sigma: 0.707107
   Nonlocal vdW cavity from gaussian model electron density with norm = 8 and sigma = 0.993594 bohr
   Charge asymmetry in cavity with sensitivity pCavity = 36.5 e-bohr/Eh
   Electrostatic cavity expanded by eta = 1.46 bohrs
   Weighted density cavitation model constrained by Nbulk: 0.0049383 bohr^-3, Pvap: 3.14029 kPa, Rvdw: 2.61727 bohr and sigmaBulk: 4.62e-05 Eh/bohr^2 at T: 298 K.
   Weighted density dispersion model using vdW pair potentials with single solvent site with sqrtC6eff: 0.77 SI.


---- Citations for features of the code used in this run ----

   Software package:
      R. Sundararaman, K. Letchworth-Weaver, K.A. Schwarz, D. Gunceler, Y. Ozhabes and T.A. Arias, 'JDFTx: software for joint density-functional theory', SoftwareX 6, 278 (2017)

   gga-PBE exchange-correlation functional:
      J.P. Perdew, K. Burke and M. Ernzerhof, Phys. Rev. Lett. 77, 3865 (1996)

   Pseudopotentials:
      KF Garrity, JW Bennett, KM Rabe and D Vanderbilt, Comput. Mater. Sci. 81, 446 (2014)

   Truncated Coulomb potentials:
      R. Sundararaman and T.A. Arias, Phys. Rev. B 87, 165122 (2013)

   Van der Waals correction pair-potentials:
      S. Grimme, J. Comput. Chem. 27, 1787 (2006)

   Charge-asymmetric nonlocally-determined local-electric (CANDLE) solvation model:
      R. Sundararaman and W.A. Goddard III, J. Chem. Phys. 142, 064107 (2015)

This list may not be complete. Please suggest additional citations or
report any other bugs at https://github.com/shankar1729/jdftx/issues

Initialization completed successfully at t[s]:    666.99

Fluid solver invoked on fresh (partially random / LCAO) wavefunctions
Running a vacuum solve first:

-------- Initial electronic minimization -----------
Will mix electronic density at each iteration.
	FillingsUpdate:  mu: -0.121599233  nElectrons: 376.000000
	FillingsUpdate:  mu: -0.145084160  nElectrons: 376.000000
SCF: Cycle:  0   F: -2192.751587030527844   dF: -3.172e-02   |Residual|: 2.130e+00   |deigs|: 8.104e-02  t[s]:    751.05
	FillingsUpdate:  mu: -0.246482701  nElectrons: 376.000000
SCF: Cycle:  1   F: -2175.034199977688786   dF: +1.772e+01   |Residual|: 2.872e+00   |deigs|: 1.101e-01  t[s]:    819.48
	FillingsUpdate:  mu: -0.143788120  nElectrons: 376.000000
SCF: Cycle:  2   F: -2194.746868554354478   dF: -1.971e+01   |Residual|: 1.158e+00   |deigs|: 1.065e-01  t[s]:    888.34
	FillingsUpdate:  mu: -0.160392981  nElectrons: 376.000000
SCF: Cycle:  3   F: -2196.144272565456049   dF: -1.397e+00   |Residual|: 3.639e-01   |deigs|: 1.901e-02  t[s]:    956.62
	FillingsUpdate:  mu: -0.159995905  nElectrons: 376.000000
SCF: Cycle:  4   F: -2196.005433504535176   dF: +1.388e-01   |Residual|: 4.165e-01   |deigs|: 1.937e-03  t[s]:   1024.67
	FillingsUpdate:  mu: -0.156544654  nElectrons: 376.000000
SCF: Cycle:  5   F: -2196.334779315324340   dF: -3.293e-01   |Residual|: 1.918e-01   |deigs|: 5.232e-03  t[s]:   1092.67
	FillingsUpdate:  mu: -0.155093635  nElectrons: 376.000000
SCF: Cycle:  6   F: -2196.352850408825816   dF: -1.807e-02   |Residual|: 1.777e-01   |deigs|: 1.518e-03  t[s]:   1160.81
	FillingsUpdate:  mu: -0.145960699  nElectrons: 376.000000
SCF: Cycle:  7   F: -2196.432002363643733   dF: -7.915e-02   |Residual|: 8.154e-02   |deigs|: 8.130e-03  t[s]:   1229.19
	FillingsUpdate:  mu: -0.144931830  nElectrons: 376.000000
SCF: Cycle:  8   F: -2196.426174371301386   dF: +5.828e-03   |Residual|: 9.506e-02   |deigs|: 9.814e-04  t[s]:   1296.15
	FillingsUpdate:  mu: -0.139473945  nElectrons: 376.000000
SCF: Cycle:  9   F: -2196.447617732470917   dF: -2.144e-02   |Residual|: 3.901e-02   |deigs|: 5.050e-03  t[s]:   1365.36
	FillingsUpdate:  mu: -0.138503332  nElectrons: 376.000000
SCF: Cycle: 10   F: -2196.443743510017157   dF: +3.874e-03   |Residual|: 5.332e-02   |deigs|: 9.139e-04  t[s]:   1434.53
	FillingsUpdate:  mu: -0.130420821  nElectrons: 376.000000
SCF: Cycle: 11   F: -2196.453236461244160   dF: -9.493e-03   |Residual|: 1.136e-02   |deigs|: 7.401e-03  t[s]:   1502.27
	FillingsUpdate:  mu: -0.127342944  nElectrons: 376.000000
SCF: Cycle: 12   F: -2196.441729004841363   dF: +1.151e-02   |Residual|: 6.692e-02   |deigs|: 2.880e-03  t[s]:   1571.11
	FillingsUpdate:  mu: -0.125695730  nElectrons: 376.000000
SCF: Cycle: 13   F: -2196.453659685927960   dF: -1.193e-02   |Residual|: 8.779e-03   |deigs|: 1.572e-03  t[s]:   1639.54
	FillingsUpdate:  mu: -0.121635970  nElectrons: 376.000000
SCF: Cycle: 14   F: -2196.449949934542474   dF: +3.710e-03   |Residual|: 3.665e-02   |deigs|: 4.156e-03  t[s]:   1707.89
	FillingsUpdate:  mu: -0.120899832  nElectrons: 376.000000
SCF: Cycle: 15   F: -2196.452742393898006   dF: -2.792e-03   |Residual|: 1.975e-02   |deigs|: 8.575e-04  t[s]:   1778.31
	FillingsUpdate:  mu: -0.118598827  nElectrons: 376.000000
SCF: Cycle: 16   F: -2196.453362864690916   dF: -6.205e-04   |Residual|: 1.353e-02   |deigs|: 2.434e-03  t[s]:   1847.25
	FillingsUpdate:  mu: -0.117086611  nElectrons: 376.000000
SCF: Cycle: 17   F: -2196.452431561129288   dF: +9.313e-04   |Residual|: 2.268e-02   |deigs|: 1.588e-03  t[s]:   1915.20
	FillingsUpdate:  mu: -0.116370589  nElectrons: 376.000000
SCF: Cycle: 18   F: -2196.453525473160880   dF: -1.094e-03   |Residual|: 1.103e-02   |deigs|: 7.450e-04  t[s]:   1999.77
	FillingsUpdate:  mu: -0.115450084  nElectrons: 376.000000
SCF: Cycle: 19   F: -2196.451760004179960   dF: +1.765e-03   |Residual|: 2.803e-02   |deigs|: 9.166e-04  t[s]:   2067.46
	FillingsUpdate:  mu: -0.114790483  nElectrons: 376.000000
SCF: Cycle: 20   F: -2196.453674378033156   dF: -1.914e-03   |Residual|: 9.146e-03   |deigs|: 7.193e-04  t[s]:   2137.68
	FillingsUpdate:  mu: -0.113630968  nElectrons: 376.000000
SCF: Cycle: 21   F: -2196.453796173772389   dF: -1.218e-04   |Residual|: 6.599e-03   |deigs|: 1.201e-03  t[s]:   2206.23
	FillingsUpdate:  mu: -0.111625561  nElectrons: 376.000000
SCF: Cycle: 22   F: -2196.453931184277735   dF: -1.350e-04   |Residual|: 3.420e-03   |deigs|: 2.052e-03  t[s]:   2274.23
	FillingsUpdate:  mu: -0.110722041  nElectrons: 376.000000
SCF: Cycle: 23   F: -2196.453883154873893   dF: +4.803e-05   |Residual|: 5.698e-03   |deigs|: 9.160e-04  t[s]:   2343.21
	FillingsUpdate:  mu: -0.109764975  nElectrons: 376.000000
SCF: Cycle: 24   F: -2196.453950813659958   dF: -6.766e-05   |Residual|: 3.062e-03   |deigs|: 1.046e-03  t[s]:   2413.43
	FillingsUpdate:  mu: -0.108929197  nElectrons: 376.000000
SCF: Cycle: 25   F: -2196.453774818281545   dF: +1.760e-04   |Residual|: 8.444e-03   |deigs|: 9.054e-04  t[s]:   2483.10
	FillingsUpdate:  mu: -0.108827589  nElectrons: 376.000000
SCF: Cycle: 26   F: -2196.453925919127414   dF: -1.511e-04   |Residual|: 4.508e-03   |deigs|: 2.396e-04  t[s]:   2551.27
	FillingsUpdate:  mu: -0.108447004  nElectrons: 376.000000
SCF: Cycle: 27   F: -2196.453967044141336   dF: -4.113e-05   |Residual|: 2.529e-03   |deigs|: 4.097e-04  t[s]:   2621.57
	FillingsUpdate:  mu: -0.108179410  nElectrons: 376.000000
SCF: Cycle: 28   F: -2196.453868807841445   dF: +9.824e-05   |Residual|: 6.318e-03   |deigs|: 2.985e-04  t[s]:   2691.86
	FillingsUpdate:  mu: -0.108128384  nElectrons: 376.000000
SCF: Cycle: 29   F: -2196.453953960046420   dF: -8.515e-05   |Residual|: 3.165e-03   |deigs|: 2.869e-04  t[s]:   2761.80
	FillingsUpdate:  mu: -0.107849772  nElectrons: 376.000000
SCF: Cycle: 30   F: -2196.453895618974002   dF: +5.834e-05   |Residual|: 5.675e-03   |deigs|: 3.015e-04  t[s]:   2832.11
	FillingsUpdate:  mu: -0.107902326  nElectrons: 376.000000
SCF: Cycle: 31   F: -2196.453957563713175   dF: -6.194e-05   |Residual|: 2.981e-03   |deigs|: 4.405e-04  t[s]:   2901.06
	FillingsUpdate:  mu: -0.107637374  nElectrons: 376.000000
SCF: Cycle: 32   F: -2196.453977592457250   dF: -2.003e-05   |Residual|: 1.579e-03   |deigs|: 3.389e-04  t[s]:   2968.90
	FillingsUpdate:  mu: -0.107405751  nElectrons: 376.000000
SCF: Cycle: 33   F: -2196.453980053485338   dF: -2.461e-06   |Residual|: 1.517e-03   |deigs|: 2.755e-04  t[s]:   3038.02
	FillingsUpdate:  mu: -0.107218324  nElectrons: 376.000000
SCF: Cycle: 34   F: -2196.453967829518206   dF: +1.222e-05   |Residual|: 2.503e-03   |deigs|: 3.577e-04  t[s]:   3106.15
	FillingsUpdate:  mu: -0.107143832  nElectrons: 376.000000
SCF: Cycle: 35   F: -2196.453976236191011   dF: -8.407e-06   |Residual|: 1.825e-03   |deigs|: 1.002e-04  t[s]:   3175.08
	FillingsUpdate:  mu: -0.106840477  nElectrons: 376.000000
SCF: Cycle: 36   F: -2196.453964845950395   dF: +1.139e-05   |Residual|: 2.785e-03   |deigs|: 5.918e-04  t[s]:   3243.98
	FillingsUpdate:  mu: -0.106771407  nElectrons: 376.000000
SCF: Cycle: 37   F: -2196.453976714561122   dF: -1.187e-05   |Residual|: 1.960e-03   |deigs|: 9.207e-05  t[s]:   3312.02
	FillingsUpdate:  mu: -0.106587069  nElectrons: 376.000000
SCF: Cycle: 38   F: -2196.453972094594519   dF: +4.620e-06   |Residual|: 2.431e-03   |deigs|: 2.388e-04  t[s]:   3380.39
	FillingsUpdate:  mu: -0.106260955  nElectrons: 376.000000
SCF: Cycle: 39   F: -2196.453957024146803   dF: +1.507e-05   |Residual|: 3.311e-03   |deigs|: 3.862e-04  t[s]:   3450.21
	FillingsUpdate:  mu: -0.106218721  nElectrons: 376.000000
SCF: Cycle: 40   F: -2196.453981781758557   dF: -2.476e-05   |Residual|: 1.526e-03   |deigs|: 4.427e-05  t[s]:   3520.44
	FillingsUpdate:  mu: -0.106080067  nElectrons: 376.000000
SCF: Cycle: 41   F: -2196.453969196322760   dF: +1.259e-05   |Residual|: 2.676e-03   |deigs|: 1.559e-04  t[s]:   3587.96
	FillingsUpdate:  mu: -0.105958323  nElectrons: 376.000000
SCF: Cycle: 42   F: -2196.453984814663272   dF: -1.562e-05   |Residual|: 1.200e-03   |deigs|: 1.502e-04  t[s]:   3656.75
	FillingsUpdate:  mu: -0.105723141  nElectrons: 376.000000
SCF: Cycle: 43   F: -2196.453987368778598   dF: -2.554e-06   |Residual|: 7.865e-04   |deigs|: 2.881e-04  t[s]:   3726.03
	FillingsUpdate:  mu: -0.105392761  nElectrons: 376.000000
SCF: Cycle: 44   F: -2196.453987148471697   dF: +2.203e-07   |Residual|: 8.429e-04   |deigs|: 4.681e-04  t[s]:   3795.12
	FillingsUpdate:  mu: -0.105386711  nElectrons: 376.000000
SCF: Cycle: 45   F: -2196.453980880356994   dF: +6.268e-06   |Residual|: 1.780e-03   |deigs|: 9.445e-05  t[s]:   3863.86
	FillingsUpdate:  mu: -0.105322114  nElectrons: 376.000000
SCF: Cycle: 46   F: -2196.453984830930040   dF: -3.951e-06   |Residual|: 1.298e-03   |deigs|: 8.958e-05  t[s]:   3930.46
	FillingsUpdate:  mu: -0.105124149  nElectrons: 376.000000
SCF: Cycle: 47   F: -2196.453985195292717   dF: -3.644e-07   |Residual|: 1.191e-03   |deigs|: 3.818e-04  t[s]:   3999.08
	FillingsUpdate:  mu: -0.105079900  nElectrons: 376.000000
SCF: Cycle: 48   F: -2196.453988090192979   dF: -2.895e-06   |Residual|: 6.584e-04   |deigs|: 7.216e-05  t[s]:   4069.88
	FillingsUpdate:  mu: -0.105087506  nElectrons: 376.000000
SCF: Cycle: 49   F: -2196.453987953126671   dF: +1.371e-07   |Residual|: 7.236e-04   |deigs|: 6.756e-05  t[s]:   4136.38
	FillingsUpdate:  mu: -0.105049517  nElectrons: 376.000000
SCF: Cycle: 50   F: -2196.453986668795551   dF: +1.284e-06   |Residual|: 9.939e-04   |deigs|: 2.366e-04  t[s]:   4205.99
	FillingsUpdate:  mu: -0.105023826  nElectrons: 376.000000
SCF: Cycle: 51   F: -2196.453988569261128   dF: -1.900e-06   |Residual|: 5.662e-04   |deigs|: 2.948e-05  t[s]:   4275.63
	FillingsUpdate:  mu: -0.105032650  nElectrons: 376.000000
SCF: Cycle: 52   F: -2196.453987218541442   dF: +1.351e-06   |Residual|: 9.051e-04   |deigs|: 8.495e-05  t[s]:   4342.27
	FillingsUpdate:  mu: -0.104992648  nElectrons: 376.000000
SCF: Cycle: 53   F: -2196.453988925193244   dF: -1.707e-06   |Residual|: 4.371e-04   |deigs|: 1.191e-04  t[s]:   4442.32
	FillingsUpdate:  mu: -0.104985742  nElectrons: 376.000000
SCF: Cycle: 54   F: -2196.453989327989348   dF: -4.028e-07   |Residual|: 2.205e-04   |deigs|: 1.437e-04  t[s]:   4544.56
	FillingsUpdate:  mu: -0.104988705  nElectrons: 376.000000
SCF: Cycle: 55   F: -2196.453989459794229   dF: -1.318e-07   |Residual|: 1.700e-04   |deigs|: 1.948e-04  t[s]:   4612.01
	FillingsUpdate:  mu: -0.105000169  nElectrons: 376.000000
SCF: Cycle: 56   F: -2196.453989072679633   dF: +3.871e-07   |Residual|: 4.516e-04   |deigs|: 7.545e-05  t[s]:   4680.39
	FillingsUpdate:  mu: -0.104996534  nElectrons: 376.000000
SCF: Cycle: 57   F: -2196.453989213586283   dF: -1.409e-07   |Residual|: 3.681e-04   |deigs|: 1.250e-05  t[s]:   4748.75
	FillingsUpdate:  mu: -0.105005880  nElectrons: 376.000000
SCF: Cycle: 58   F: -2196.453989439231918   dF: -2.256e-07   |Residual|: 2.210e-04   |deigs|: 6.311e-05  t[s]:   4817.22
	FillingsUpdate:  mu: -0.105010039  nElectrons: 376.000000
SCF: Cycle: 59   F: -2196.453989478380663   dF: -3.915e-08   |Residual|: 1.985e-04   |deigs|: 1.190e-05  t[s]:   4884.70
	FillingsUpdate:  mu: -0.105010117  nElectrons: 376.000000
SCF: Cycle: 60   F: -2196.453988943003424   dF: +5.354e-07   |Residual|: 4.793e-04   |deigs|: 2.103e-05  t[s]:   4952.89
	FillingsUpdate:  mu: -0.105034380  nElectrons: 376.000000
SCF: Cycle: 61   F: -2196.453989432737217   dF: -4.897e-07   |Residual|: 2.635e-04   |deigs|: 5.039e-05  t[s]:   5021.27
	FillingsUpdate:  mu: -0.105033259  nElectrons: 376.000000
SCF: Cycle: 62   F: -2196.453989546464072   dF: -1.137e-07   |Residual|: 1.929e-04   |deigs|: 1.450e-05  t[s]:   5089.75
	FillingsUpdate:  mu: -0.105030166  nElectrons: 376.000000
SCF: Cycle: 63   F: -2196.453989433377501   dF: +1.131e-07   |Residual|: 2.609e-04   |deigs|: 1.437e-05  t[s]:   5156.69
	FillingsUpdate:  mu: -0.105038887  nElectrons: 376.000000
SCF: Cycle: 64   F: -2196.453989591781465   dF: -1.584e-07   |Residual|: 1.480e-04   |deigs|: 1.929e-05  t[s]:   5223.12
	FillingsUpdate:  mu: -0.105050864  nElectrons: 376.000000
SCF: Cycle: 65   F: -2196.453989623479174   dF: -3.170e-08   |Residual|: 9.721e-05   |deigs|: 4.321e-05  t[s]:   5290.79
	FillingsUpdate:  mu: -0.105062762  nElectrons: 376.000000
SCF: Cycle: 66   F: -2196.453989637582254   dF: -1.410e-08   |Residual|: 6.858e-05   |deigs|: 2.032e-05  t[s]:   5356.08
	FillingsUpdate:  mu: -0.105079790  nElectrons: 376.000000
SCF: Cycle: 67   F: -2196.453989640360305   dF: -2.778e-09   |Residual|: 8.831e-05   |deigs|: 2.500e-05  t[s]:   5422.42
	FillingsUpdate:  mu: -0.105086213  nElectrons: 376.000000
SCF: Cycle: 68   F: -2196.453989548535446   dF: +9.182e-08   |Residual|: 1.849e-04   |deigs|: 1.089e-05  t[s]:   5488.66
	FillingsUpdate:  mu: -0.105100504  nElectrons: 376.000000
SCF: Cycle: 69   F: -2196.453989637703671   dF: -8.917e-08   |Residual|: 7.399e-05   |deigs|: 2.154e-05  t[s]:   5555.61
	FillingsUpdate:  mu: -0.105113192  nElectrons: 376.000000
SCF: Cycle: 70   F: -2196.453989610894041   dF: +2.681e-08   |Residual|: 1.241e-04   |deigs|: 2.154e-05  t[s]:   5621.33
	FillingsUpdate:  mu: -0.105132183  nElectrons: 376.000000
SCF: Cycle: 71   F: -2196.453989634318077   dF: -2.342e-08   |Residual|: 8.241e-05   |deigs|: 3.988e-05  t[s]:   5686.66
	FillingsUpdate:  mu: -0.105143518  nElectrons: 376.000000
SCF: Cycle: 72   F: -2196.453989635963353   dF: -1.645e-09   |Residual|: 1.025e-04   |deigs|: 2.451e-05  t[s]:   5753.91
	FillingsUpdate:  mu: -0.105149727  nElectrons: 376.000000
SCF: Cycle: 73   F: -2196.453989634076152   dF: +1.887e-09   |Residual|: 9.546e-05   |deigs|: 1.193e-05  t[s]:   5818.95
	FillingsUpdate:  mu: -0.105157025  nElectrons: 376.000000
SCF: Cycle: 74   F: -2196.453989654155976   dF: -2.008e-08   |Residual|: 9.403e-05   |deigs|: 1.547e-05  t[s]:   5882.70
	FillingsUpdate:  mu: -0.105162034  nElectrons: 376.000000
SCF: Cycle: 75   F: -2196.453989658924456   dF: -4.768e-09   |Residual|: 6.672e-05   |deigs|: 2.085e-05  t[s]:   5947.43
	FillingsUpdate:  mu: -0.105171320  nElectrons: 376.000000
SCF: Cycle: 76   F: -2196.453989632860612   dF: +2.606e-08   |Residual|: 8.574e-05   |deigs|: 2.735e-05  t[s]:   6012.42
	FillingsUpdate:  mu: -0.105177531  nElectrons: 376.000000
SCF: Cycle: 77   F: -2196.453989642358010   dF: -9.497e-09   |Residual|: 6.628e-05   |deigs|: 2.587e-05  t[s]:   6076.73
	FillingsUpdate:  mu: -0.105189667  nElectrons: 376.000000
SCF: Cycle: 78   F: -2196.453989622290010   dF: +2.007e-08   |Residual|: 4.889e-05   |deigs|: 2.911e-05  t[s]:   6138.93
	FillingsUpdate:  mu: -0.105191543  nElectrons: 376.000000
SCF: Cycle: 79   F: -2196.453989631826062   dF: -9.536e-09   |Residual|: 8.764e-05   |deigs|: 4.041e-06  t[s]:   6198.54
	FillingsUpdate:  mu: -0.105188544  nElectrons: 376.000000
SCF: Cycle: 80   F: -2196.453989666968937   dF: -3.514e-08   |Residual|: 4.935e-05   |deigs|: 6.066e-06  t[s]:   6272.93
	FillingsUpdate:  mu: -0.105192676  nElectrons: 376.000000
SCF: Cycle: 81   F: -2196.453989658540650   dF: +8.428e-09   |Residual|: 5.415e-05   |deigs|: 1.285e-05  t[s]:   6375.68
	FillingsUpdate:  mu: -0.105195335  nElectrons: 376.000000
SCF: Cycle: 82   F: -2196.453989678450853   dF: -1.991e-08   |Residual|: 5.095e-05   |deigs|: 9.478e-06  t[s]:   6435.64
	FillingsUpdate:  mu: -0.105198431  nElectrons: 376.000000
SCF: Cycle: 83   F: -2196.453989656863541   dF: +2.159e-08   |Residual|: 5.644e-05   |deigs|: 1.002e-05  t[s]:   6497.78
	FillingsUpdate:  mu: -0.105204233  nElectrons: 376.000000
SCF: Cycle: 84   F: -2196.453989644280682   dF: +1.258e-08   |Residual|: 6.266e-05   |deigs|: 2.026e-05  t[s]:   6568.44
	FillingsUpdate:  mu: -0.105202289  nElectrons: 376.000000
SCF: Cycle: 85   F: -2196.453989650894528   dF: -6.614e-09   |Residual|: 5.386e-05   |deigs|: 6.405e-06  t[s]:   6656.70
	FillingsUpdate:  mu: -0.105199034  nElectrons: 376.000000
SCF: Cycle: 86   F: -2196.453989623160851   dF: +2.773e-08   |Residual|: 7.529e-05   |deigs|: 9.735e-06  t[s]:   6717.58
	FillingsUpdate:  mu: -0.105201175  nElectrons: 376.000000
SCF: Cycle: 87   F: -2196.453989636848291   dF: -1.369e-08   |Residual|: 4.680e-05   |deigs|: 8.323e-06  t[s]:   6779.89
	FillingsUpdate:  mu: -0.105206339  nElectrons: 376.000000
SCF: Cycle: 88   F: -2196.453989646768150   dF: -9.920e-09   |Residual|: 3.139e-05   |deigs|: 2.141e-05  t[s]:   6840.86
	FillingsUpdate:  mu: -0.105200948  nElectrons: 376.000000
SCF: Cycle: 89   F: -2196.453989641939188   dF: +4.829e-09   |Residual|: 3.265e-05   |deigs|: 1.754e-05  t[s]:   6902.53
	FillingsUpdate:  mu: -0.105201989  nElectrons: 376.000000
SCF: Cycle: 90   F: -2196.453989651345637   dF: -9.406e-09   |Residual|: 5.672e-05   |deigs|: 7.024e-06  t[s]:   6962.60
	FillingsUpdate:  mu: -0.105205431  nElectrons: 376.000000
SCF: Cycle: 91   F: -2196.453989658154569   dF: -6.809e-09   |Residual|: 4.837e-05   |deigs|: 1.876e-05  t[s]:   7026.08
SCF: Converged (|Delta E|<1.000000e-08 for 2 iters).

Vacuum energy after initial minimize, F = -2196.453989658154569

	FillingsUpdate:  mu: -0.105205431  nElectrons: 376.000000
	Linear fluid (dielectric constant: 78.4, screening length: 5.74355 Bohr) occupying 0.773953 of unit cell:	Completed after 17 iterations at t[s]:   7035.05

-------- Electronic minimization -----------
Will mix electronic density at each iteration.
	FillingsUpdate:  mu: -0.105205431  nElectrons: 376.000000
	Linear fluid (dielectric constant: 78.4, screening length: 5.74355 Bohr) occupying 0.773953 of unit cell:	Completed after 0 iterations at t[s]:   7043.58
	FillingsUpdate:  mu: -0.173249797  nElectrons: 376.000000
	Linear fluid (dielectric constant: 78.4, screening length: 5.74355 Bohr) occupying 0.774519 of unit cell:	Completed after 12 iterations at t[s]:   7127.60
SCF: Cycle:  0   F: -2196.442024707284418   dF: -5.523e-05   |Residual|: 3.781e-03   |deigs|: 8.483e-05  t[s]:   7129.18
	Linear fluid (dielectric constant: 78.4, screening length: 5.74355 Bohr) occupying 0.773910 of unit cell:	Completed after 11 iterations at t[s]:   7130.47
	FillingsUpdate:  mu: -0.172769180  nElectrons: 376.000000
	Linear fluid (dielectric constant: 78.4, screening length: 5.74355 Bohr) occupying 0.774482 of unit cell:	Completed after 12 iterations at t[s]:   7203.26
SCF: Cycle:  1   F: -2196.441636717946494   dF: +3.880e-04   |Residual|: 1.341e-02   |deigs|: 4.273e-04  t[s]:   7204.88
	Linear fluid (dielectric constant: 78.4, screening length: 5.74355 Bohr) occupying 0.773918 of unit cell:	Completed after 11 iterations at t[s]:   7206.22
	FillingsUpdate:  mu: -0.172835657  nElectrons: 376.000000
	Linear fluid (dielectric constant: 78.4, screening length: 5.74355 Bohr) occupying 0.774489 of unit cell:	Completed after 12 iterations at t[s]:   7278.23
SCF: Cycle:  2   F: -2196.441809963196192   dF: -1.732e-04   |Residual|: 1.026e-02   |deigs|: 7.145e-05  t[s]:   7279.77
	Linear fluid (dielectric constant: 78.4, screening length: 5.74355 Bohr) occupying 0.773931 of unit cell:	Completed after 11 iterations at t[s]:   7281.11
	FillingsUpdate:  mu: -0.172900140  nElectrons: 376.000000
	Linear fluid (dielectric constant: 78.4, screening length: 5.74355 Bohr) occupying 0.774495 of unit cell:	Completed after 10 iterations at t[s]:   7353.33
SCF: Cycle:  3   F: -2196.442055529229947   dF: -2.456e-04   |Residual|: 2.673e-03   |deigs|: 7.866e-05  t[s]:   7354.89
	Linear fluid (dielectric constant: 78.4, screening length: 5.74355 Bohr) occupying 0.773946 of unit cell:	Completed after 10 iterations at t[s]:   7356.12
	FillingsUpdate:  mu: -0.172782886  nElectrons: 376.000000
	Linear fluid (dielectric constant: 78.4, screening length: 5.74355 Bohr) occupying 0.774487 of unit cell:	Completed after 11 iterations at t[s]:   7428.51
SCF: Cycle:  4   F: -2196.441904958892792   dF: +1.506e-04   |Residual|: 7.771e-03   |deigs|: 1.149e-04  t[s]:   7430.28
	Linear fluid (dielectric constant: 78.4, screening length: 5.74355 Bohr) occupying 0.773968 of unit cell:	Completed after 12 iterations at t[s]:   7431.67
	FillingsUpdate:  mu: -0.172639075  nElectrons: 376.000000
	Linear fluid (dielectric constant: 78.4, screening length: 5.74355 Bohr) occupying 0.774478 of unit cell:	Completed after 8 iterations at t[s]:   7503.17
SCF: Cycle:  5   F: -2196.442077267630339   dF: -1.723e-04   |Residual|: 1.231e-03   |deigs|: 1.420e-04  t[s]:   7504.91
	Linear fluid (dielectric constant: 78.4, screening length: 5.74355 Bohr) occupying 0.773994 of unit cell:	Completed after 8 iterations at t[s]:   7506.07
	FillingsUpdate:  mu: -0.172577553  nElectrons: 376.000000
	Linear fluid (dielectric constant: 78.4, screening length: 5.74355 Bohr) occupying 0.774475 of unit cell:	Completed after 9 iterations at t[s]:   7578.30
SCF: Cycle:  6   F: -2196.442054654708954   dF: +2.261e-05   |Residual|: 3.251e-03   |deigs|: 6.613e-05  t[s]:   7580.05
	Linear fluid (dielectric constant: 78.4, screening length: 5.74355 Bohr) occupying 0.774085 of unit cell:	Completed after 8 iterations at t[s]:   7581.18
	FillingsUpdate:  mu: -0.172393634  nElectrons: 376.000000
	Linear fluid (dielectric constant: 78.4, screening length: 5.74355 Bohr) occupying 0.774466 of unit cell:	Completed after 9 iterations at t[s]:   7653.97
SCF: Cycle:  7   F: -2196.442073811320824   dF: -1.916e-05   |Residual|: 1.555e-03   |deigs|: 2.025e-04  t[s]:   7655.75
	Linear fluid (dielectric constant: 78.4, screening length: 5.74355 Bohr) occupying 0.774101 of unit cell:	Completed after 8 iterations at t[s]:   7656.88
	FillingsUpdate:  mu: -0.172370531  nElectrons: 376.000000
	Linear fluid (dielectric constant: 78.4, screening length: 5.74355 Bohr) occupying 0.774465 of unit cell:	Completed after 8 iterations at t[s]:   7730.01
SCF: Cycle:  8   F: -2196.442077837665238   dF: -4.026e-06   |Residual|: 1.223e-03   |deigs|: 2.706e-05  t[s]:   7732.07
	Linear fluid (dielectric constant: 78.4, screening length: 5.74355 Bohr) occupying 0.774182 of unit cell:	Completed after 7 iterations at t[s]:   7733.20
	FillingsUpdate:  mu: -0.172295121  nElectrons: 376.000000
	Linear fluid (dielectric constant: 78.4, screening length: 5.74355 Bohr) occupying 0.774464 of unit cell:	Completed after 7 iterations at t[s]:   7819.02
SCF: Cycle:  9   F: -2196.442080268992868   dF: -2.431e-06   |Residual|: 8.089e-04   |deigs|: 1.029e-04  t[s]:   7820.52
	Linear fluid (dielectric constant: 78.4, screening length: 5.74355 Bohr) occupying 0.774237 of unit cell:	Completed after 7 iterations at t[s]:   7821.50
	FillingsUpdate:  mu: -0.172257883  nElectrons: 376.000000
	Linear fluid (dielectric constant: 78.4, screening length: 5.74355 Bohr) occupying 0.774464 of unit cell:	Completed after 8 iterations at t[s]:   7891.67
SCF: Cycle: 10   F: -2196.442071772178224   dF: +8.497e-06   |Residual|: 1.912e-03   |deigs|: 6.067e-05  t[s]:   7902.65
	Linear fluid (dielectric constant: 78.4, screening length: 5.74355 Bohr) occupying 0.774299 of unit cell:	Completed after 7 iterations at t[s]:   7903.81
	FillingsUpdate:  mu: -0.172203732  nElectrons: 376.000000
	Linear fluid (dielectric constant: 78.4, screening length: 5.74355 Bohr) occupying 0.774463 of unit cell:	Completed after 7 iterations at t[s]:   7985.02
SCF: Cycle: 11   F: -2196.442078190910252   dF: -6.419e-06   |Residual|: 1.085e-03   |deigs|: 7.205e-05  t[s]:   7986.50
	Linear fluid (dielectric constant: 78.4, screening length: 5.74355 Bohr) occupying 0.774321 of unit cell:	Completed after 4 iterations at t[s]:   7987.29
	FillingsUpdate:  mu: -0.172151776  nElectrons: 376.000000
	Linear fluid (dielectric constant: 78.4, screening length: 5.74355 Bohr) occupying 0.774459 of unit cell:	Completed after 4 iterations at t[s]:   8058.72
SCF: Cycle: 12   F: -2196.442078298968681   dF: -1.081e-07   |Residual|: 1.217e-03   |deigs|: 5.110e-05  t[s]:   8060.27
	Linear fluid (dielectric constant: 78.4, screening length: 5.74355 Bohr) occupying 0.774309 of unit cell:	Completed after 4 iterations at t[s]:   8061.10
	FillingsUpdate:  mu: -0.172167468  nElectrons: 376.000000
	Linear fluid (dielectric constant: 78.4, screening length: 5.74355 Bohr) occupying 0.774460 of unit cell:	Completed after 4 iterations at t[s]:   8131.93
SCF: Cycle: 13   F: -2196.442082097820730   dF: -3.799e-06   |Residual|: 5.258e-04   |deigs|: 1.692e-05  t[s]:   8133.68
	Linear fluid (dielectric constant: 78.4, screening length: 5.74355 Bohr) occupying 0.774359 of unit cell:	Completed after 2 iterations at t[s]:   8134.34
	FillingsUpdate:  mu: -0.172163209  nElectrons: 376.000000
	Linear fluid (dielectric constant: 78.4, screening length: 5.74355 Bohr) occupying 0.774463 of unit cell:	Completed after 2 iterations at t[s]:   8204.45
SCF: Cycle: 14   F: -2196.442081783891354   dF: +3.139e-07   |Residual|: 6.206e-04   |deigs|: 4.201e-05  t[s]:   8206.21
	Linear fluid (dielectric constant: 78.4, screening length: 5.74355 Bohr) occupying 0.774400 of unit cell:	Completed after 4 iterations at t[s]:   8207.18
	FillingsUpdate:  mu: -0.172152136  nElectrons: 376.000000
	Linear fluid (dielectric constant: 78.4, screening length: 5.74355 Bohr) occupying 0.774464 of unit cell:	Completed after 2 iterations at t[s]:   8279.09
SCF: Cycle: 15   F: -2196.442080115482440   dF: +1.668e-06   |Residual|: 9.901e-04   |deigs|: 4.243e-05  t[s]:   8280.49
	Linear fluid (dielectric constant: 78.4, screening length: 5.74355 Bohr) occupying 0.774440 of unit cell:	Completed after 4 iterations at t[s]:   8281.28
	FillingsUpdate:  mu: -0.172141760  nElectrons: 376.000000
	Linear fluid (dielectric constant: 78.4, screening length: 5.74355 Bohr) occupying 0.774466 of unit cell:	Completed after 2 iterations at t[s]:   8352.94
SCF: Cycle: 16   F: -2196.442082529293202   dF: -2.414e-06   |Residual|: 3.156e-04   |deigs|: 3.243e-05  t[s]:   8354.62
	Linear fluid (dielectric constant: 78.4, screening length: 5.74355 Bohr) occupying 0.774476 of unit cell:	Completed after 3 iterations at t[s]:   8355.38
	FillingsUpdate:  mu: -0.172118322  nElectrons: 376.000000
	Linear fluid (dielectric constant: 78.4, screening length: 5.74355 Bohr) occupying 0.774466 of unit cell:	Completed after 3 iterations at t[s]:   8426.48
SCF: Cycle: 17   F: -2196.442081740451613   dF: +7.888e-07   |Residual|: 5.786e-04   |deigs|: 5.540e-05  t[s]:   8427.92
	Linear fluid (dielectric constant: 78.4, screening length: 5.74355 Bohr) occupying 0.774488 of unit cell:	Completed after 3 iterations at t[s]:   8428.58
	FillingsUpdate:  mu: -0.172114292  nElectrons: 376.000000
	Linear fluid (dielectric constant: 78.4, screening length: 5.74355 Bohr) occupying 0.774466 of unit cell:	Completed after 3 iterations at t[s]:   8498.83
SCF: Cycle: 18   F: -2196.442081941032029   dF: -2.006e-07   |Residual|: 5.597e-04   |deigs|: 1.764e-05  t[s]:   8500.38
	Linear fluid (dielectric constant: 78.4, screening length: 5.74355 Bohr) occupying 0.774504 of unit cell:	Completed after 2 iterations at t[s]:   8501.11
	FillingsUpdate:  mu: -0.172107048  nElectrons: 376.000000
	Linear fluid (dielectric constant: 78.4, screening length: 5.74355 Bohr) occupying 0.774467 of unit cell:	Completed after 3 iterations at t[s]:   8572.58
SCF: Cycle: 19   F: -2196.442081550785133   dF: +3.902e-07   |Residual|: 6.510e-04   |deigs|: 3.449e-05  t[s]:   8574.38
	Linear fluid (dielectric constant: 78.4, screening length: 5.74355 Bohr) occupying 0.774523 of unit cell:	Completed after 3 iterations at t[s]:   8575.12
	FillingsUpdate:  mu: -0.172099169  nElectrons: 376.000000
	Linear fluid (dielectric constant: 78.4, screening length: 5.74355 Bohr) occupying 0.774467 of unit cell:	Completed after 2 iterations at t[s]:   8646.66
SCF: Cycle: 20   F: -2196.442081877443798   dF: -3.267e-07   |Residual|: 5.996e-04   |deigs|: 5.046e-05  t[s]:   8648.26
	Linear fluid (dielectric constant: 78.4, screening length: 5.74355 Bohr) occupying 0.774527 of unit cell:	Completed after 3 iterations at t[s]:   8649.03
	FillingsUpdate:  mu: -0.172095214  nElectrons: 376.000000
	Linear fluid (dielectric constant: 78.4, screening length: 5.74355 Bohr) occupying 0.774467 of unit cell:	Completed after 1 iterations at t[s]:   8720.95
SCF: Cycle: 21   F: -2196.442082450090311   dF: -5.726e-07   |Residual|: 4.039e-04   |deigs|: 3.344e-05  t[s]:   8722.46
	Linear fluid (dielectric constant: 78.4, screening length: 5.74355 Bohr) occupying 0.774538 of unit cell:	Completed after 3 iterations at t[s]:   8723.20
	FillingsUpdate:  mu: -0.172095520  nElectrons: 376.000000
	Linear fluid (dielectric constant: 78.4, screening length: 5.74355 Bohr) occupying 0.774468 of unit cell:	Completed after 2 iterations at t[s]:   8793.77
SCF: Cycle: 22   F: -2196.442081693210639   dF: +7.569e-07   |Residual|: 6.286e-04   |deigs|: 3.151e-05  t[s]:   8795.39
	Linear fluid (dielectric constant: 78.4, screening length: 5.74355 Bohr) occupying 0.774530 of unit cell:	Completed after 3 iterations at t[s]:   8796.16
	FillingsUpdate:  mu: -0.172089749  nElectrons: 376.000000
	Linear fluid (dielectric constant: 78.4, screening length: 5.74355 Bohr) occupying 0.774467 of unit cell:	Completed after 2 iterations at t[s]:   8868.52
SCF: Cycle: 23   F: -2196.442082110997944   dF: -4.178e-07   |Residual|: 5.110e-04   |deigs|: 2.006e-05  t[s]:   8870.10
	Linear fluid (dielectric constant: 78.4, screening length: 5.74355 Bohr) occupying 0.774522 of unit cell:	Completed after 3 iterations at t[s]:   8870.90
	FillingsUpdate:  mu: -0.172093442  nElectrons: 376.000000
	Linear fluid (dielectric constant: 78.4, screening length: 5.74355 Bohr) occupying 0.774467 of unit cell:	Completed after 3 iterations at t[s]:   8942.88
SCF: Cycle: 24   F: -2196.442081384130233   dF: +7.269e-07   |Residual|: 6.709e-04   |deigs|: 6.118e-05  t[s]:   8944.47
	Linear fluid (dielectric constant: 78.4, screening length: 5.74355 Bohr) occupying 0.774515 of unit cell:	Completed after 2 iterations at t[s]:   8945.15
	FillingsUpdate:  mu: -0.172097909  nElectrons: 376.000000
	Linear fluid (dielectric constant: 78.4, screening length: 5.74355 Bohr) occupying 0.774467 of unit cell:	Completed after 2 iterations at t[s]:   9015.99
SCF: Cycle: 25   F: -2196.442082454481806   dF: -1.070e-06   |Residual|: 4.032e-04   |deigs|: 2.703e-05  t[s]:   9017.65
	Linear fluid (dielectric constant: 78.4, screening length: 5.74355 Bohr) occupying 0.774528 of unit cell:	Completed after 2 iterations at t[s]:   9018.32
	FillingsUpdate:  mu: -0.172093921  nElectrons: 376.000000
	Linear fluid (dielectric constant: 78.4, screening length: 5.74355 Bohr) occupying 0.774468 of unit cell:	Completed after 3 iterations at t[s]:   9090.32
SCF: Cycle: 26   F: -2196.442079722274684   dF: +2.732e-06   |Residual|: 9.381e-04   |deigs|: 1.195e-04  t[s]:   9091.71
	Linear fluid (dielectric constant: 78.4, screening length: 5.74355 Bohr) occupying 0.774521 of unit cell:	Completed after 3 iterations at t[s]:   9092.47
	FillingsUpdate:  mu: -0.172096729  nElectrons: 376.000000
	Linear fluid (dielectric constant: 78.4, screening length: 5.74355 Bohr) occupying 0.774467 of unit cell:	Completed after 2 iterations at t[s]:   9162.97
SCF: Cycle: 27   F: -2196.442082690313782   dF: -2.968e-06   |Residual|: 2.917e-04   |deigs|: 3.682e-05  t[s]:   9164.72
	Linear fluid (dielectric constant: 78.4, screening length: 5.74355 Bohr) occupying 0.774532 of unit cell:	Completed after 3 iterations at t[s]:   9165.52
	FillingsUpdate:  mu: -0.172085871  nElectrons: 376.000000
	Linear fluid (dielectric constant: 78.4, screening length: 5.74355 Bohr) occupying 0.774467 of unit cell:	Completed after 2 iterations at t[s]:   9235.05
SCF: Cycle: 28   F: -2196.442082135228702   dF: +5.551e-07   |Residual|: 4.752e-04   |deigs|: 1.832e-05  t[s]:   9236.45
	Linear fluid (dielectric constant: 78.4, screening length: 5.74355 Bohr) occupying 0.774516 of unit cell:	Completed after 3 iterations at t[s]:   9237.18
	FillingsUpdate:  mu: -0.172084141  nElectrons: 376.000000
	Linear fluid (dielectric constant: 78.4, screening length: 5.74355 Bohr) occupying 0.774466 of unit cell:	Completed after 2 iterations at t[s]:   9306.66
SCF: Cycle: 29   F: -2196.442082640735407   dF: -5.055e-07   |Residual|: 3.129e-04   |deigs|: 7.764e-05  t[s]:   9308.19
	Linear fluid (dielectric constant: 78.4, screening length: 5.74355 Bohr) occupying 0.774515 of unit cell:	Completed after 3 iterations at t[s]:   9308.93
	FillingsUpdate:  mu: -0.172085670  nElectrons: 376.000000
	Linear fluid (dielectric constant: 78.4, screening length: 5.74355 Bohr) occupying 0.774466 of unit cell:	Completed after 1 iterations at t[s]:   9378.73
SCF: Cycle: 30   F: -2196.442082823423334   dF: -1.827e-07   |Residual|: 1.977e-04   |deigs|: 5.950e-06  t[s]:   9380.39
	Linear fluid (dielectric constant: 78.4, screening length: 5.74355 Bohr) occupying 0.774514 of unit cell:	Completed after 3 iterations at t[s]:   9381.17
	FillingsUpdate:  mu: -0.172092084  nElectrons: 376.000000
	Linear fluid (dielectric constant: 78.4, screening length: 5.74355 Bohr) occupying 0.774466 of unit cell:	Completed after 2 iterations at t[s]:   9452.52
SCF: Cycle: 31   F: -2196.442082702666539   dF: +1.208e-07   |Residual|: 3.068e-04   |deigs|: 9.453e-06  t[s]:   9453.83
	Linear fluid (dielectric constant: 78.4, screening length: 5.74355 Bohr) occupying 0.774509 of unit cell:	Completed after 2 iterations at t[s]:   9454.53
	FillingsUpdate:  mu: -0.172088557  nElectrons: 376.000000
	Linear fluid (dielectric constant: 78.4, screening length: 5.74355 Bohr) occupying 0.774466 of unit cell:	Completed after 3 iterations at t[s]:   9526.50
SCF: Cycle: 32   F: -2196.442081715822951   dF: +9.868e-07   |Residual|: 5.955e-04   |deigs|: 4.196e-05  t[s]:   9528.76
	Linear fluid (dielectric constant: 78.4, screening length: 5.74355 Bohr) occupying 0.774507 of unit cell:	Completed after 2 iterations at t[s]:   9529.51
	FillingsUpdate:  mu: -0.172092829  nElectrons: 376.000000
	Linear fluid (dielectric constant: 78.4, screening length: 5.74355 Bohr) occupying 0.774466 of unit cell:	Completed after 2 iterations at t[s]:   9598.41
SCF: Cycle: 33   F: -2196.442082692643453   dF: -9.768e-07   |Residual|: 2.887e-04   |deigs|: 1.983e-05  t[s]:   9600.00
	Linear fluid (dielectric constant: 78.4, screening length: 5.74355 Bohr) occupying 0.774508 of unit cell:	Completed after 2 iterations at t[s]:   9600.64
	FillingsUpdate:  mu: -0.172090210  nElectrons: 376.000000
	Linear fluid (dielectric constant: 78.4, screening length: 5.74355 Bohr) occupying 0.774466 of unit cell:	Completed after 3 iterations at t[s]:   9672.96
SCF: Cycle: 34   F: -2196.442080624831306   dF: +2.068e-06   |Residual|: 8.155e-04   |deigs|: 1.366e-05  t[s]:   9674.50
	Linear fluid (dielectric constant: 78.4, screening length: 5.74355 Bohr) occupying 0.774501 of unit cell:	Completed after 3 iterations at t[s]:   9675.25
	FillingsUpdate:  mu: -0.172090015  nElectrons: 376.000000
	Linear fluid (dielectric constant: 78.4, screening length: 5.74355 Bohr) occupying 0.774465 of unit cell:	Completed after 2 iterations at t[s]:   9744.35
SCF: Cycle: 35   F: -2196.442082825169564   dF: -2.200e-06   |Residual|: 1.931e-04   |deigs|: 4.079e-05  t[s]:   9746.44
	Linear fluid (dielectric constant: 78.4, screening length: 5.74355 Bohr) occupying 0.774497 of unit cell:	Completed after 3 iterations at t[s]:   9747.31
	FillingsUpdate:  mu: -0.172082812  nElectrons: 376.000000
	Linear fluid (dielectric constant: 78.4, screening length: 5.74355 Bohr) occupying 0.774465 of unit cell:	Completed after 2 iterations at t[s]:   9817.43
SCF: Cycle: 36   F: -2196.442082565379224   dF: +2.598e-07   |Residual|: 3.435e-04   |deigs|: 2.602e-05  t[s]:   9818.94
	Linear fluid (dielectric constant: 78.4, screening length: 5.74355 Bohr) occupying 0.774498 of unit cell:	Completed after 3 iterations at t[s]:   9819.67
	FillingsUpdate:  mu: -0.172086880  nElectrons: 376.000000
	Linear fluid (dielectric constant: 78.4, screening length: 5.74355 Bohr) occupying 0.774465 of unit cell:	Completed after 1 iterations at t[s]:   9890.76
SCF: Cycle: 37   F: -2196.442082884374940   dF: -3.190e-07   |Residual|: 1.956e-04   |deigs|: 1.176e-05  t[s]:   9892.35
	Linear fluid (dielectric constant: 78.4, screening length: 5.74355 Bohr) occupying 0.774495 of unit cell:	Completed after 3 iterations at t[s]:   9893.08
	FillingsUpdate:  mu: -0.172089036  nElectrons: 376.000000
	Linear fluid (dielectric constant: 78.4, screening length: 5.74355 Bohr) occupying 0.774465 of unit cell:	Completed after 1 iterations at t[s]:   9966.72
SCF: Cycle: 38   F: -2196.442082839453633   dF: +4.492e-08   |Residual|: 2.166e-04   |deigs|: 1.101e-05  t[s]:   9968.18
	Linear fluid (dielectric constant: 78.4, screening length: 5.74355 Bohr) occupying 0.774494 of unit cell:	Completed after 2 iterations at t[s]:   9968.92
	FillingsUpdate:  mu: -0.172085546  nElectrons: 376.000000
	Linear fluid (dielectric constant: 78.4, screening length: 5.74355 Bohr) occupying 0.774465 of unit cell:	Completed after 3 iterations at t[s]:  10042.11
SCF: Cycle: 39   F: -2196.442081392899581   dF: +1.447e-06   |Residual|: 7.065e-04   |deigs|: 1.693e-05  t[s]:  10043.67
	Linear fluid (dielectric constant: 78.4, screening length: 5.74355 Bohr) occupying 0.774488 of unit cell:	Completed after 2 iterations at t[s]:  10044.30
	FillingsUpdate:  mu: -0.172084428  nElectrons: 376.000000
	Linear fluid (dielectric constant: 78.4, screening length: 5.74355 Bohr) occupying 0.774464 of unit cell:	Completed after 2 iterations at t[s]:  10117.78
SCF: Cycle: 40   F: -2196.442082270607443   dF: -8.777e-07   |Residual|: 4.352e-04   |deigs|: 4.489e-05  t[s]:  10119.56
	Linear fluid (dielectric constant: 78.4, screening length: 5.74355 Bohr) occupying 0.774484 of unit cell:	Completed after 3 iterations at t[s]:  10120.48
	FillingsUpdate:  mu: -0.172088215  nElectrons: 376.000000
	Linear fluid (dielectric constant: 78.4, screening length: 5.74355 Bohr) occupying 0.774464 of unit cell:	Completed after 1 iterations at t[s]:  10194.45
SCF: Cycle: 41   F: -2196.442082784006288   dF: -5.134e-07   |Residual|: 2.495e-04   |deigs|: 3.361e-05  t[s]:  10196.69
	Linear fluid (dielectric constant: 78.4, screening length: 5.74355 Bohr) occupying 0.774483 of unit cell:	Completed after 3 iterations at t[s]:  10197.50
	FillingsUpdate:  mu: -0.172091333  nElectrons: 376.000000
	Linear fluid (dielectric constant: 78.4, screening length: 5.74355 Bohr) occupying 0.774464 of unit cell:	Completed after 2 iterations at t[s]:  10271.32
SCF: Cycle: 42   F: -2196.442082824457430   dF: -4.045e-08   |Residual|: 2.339e-04   |deigs|: 1.864e-05  t[s]:  10273.20
	Linear fluid (dielectric constant: 78.4, screening length: 5.74355 Bohr) occupying 0.774483 of unit cell:	Completed after 2 iterations at t[s]:  10273.96
	FillingsUpdate:  mu: -0.172090767  nElectrons: 376.000000
	Linear fluid (dielectric constant: 78.4, screening length: 5.74355 Bohr) occupying 0.774464 of unit cell:	Completed after 2 iterations at t[s]:  10346.75
SCF: Cycle: 43   F: -2196.442082208610373   dF: +6.158e-07   |Residual|: 5.033e-04   |deigs|: 5.923e-06  t[s]:  10348.59
	Linear fluid (dielectric constant: 78.4, screening length: 5.74355 Bohr) occupying 0.774479 of unit cell:	Completed after 3 iterations at t[s]:  10349.34
	FillingsUpdate:  mu: -0.172088724  nElectrons: 376.000000
	Linear fluid (dielectric constant: 78.4, screening length: 5.74355 Bohr) occupying 0.774464 of unit cell:	Completed after 0 iterations at t[s]:  10421.18
SCF: Cycle: 44   F: -2196.442082990961353   dF: -7.824e-07   |Residual|: 1.244e-04   |deigs|: 4.367e-05  t[s]:  10423.63
	Linear fluid (dielectric constant: 78.4, screening length: 5.74355 Bohr) occupying 0.774476 of unit cell:	Completed after 0 iterations at t[s]:  10424.19
	FillingsUpdate:  mu: -0.172088734  nElectrons: 376.000000
	Linear fluid (dielectric constant: 78.4, screening length: 5.74355 Bohr) occupying 0.774464 of unit cell:	Completed after 0 iterations at t[s]:  10485.62
SCF: Cycle: 45   F: -2196.442082992519772   dF: -1.558e-09   |Residual|: 1.170e-04   |deigs|: 2.661e-05  t[s]:  10488.15
	Linear fluid (dielectric constant: 78.4, screening length: 5.74355 Bohr) occupying 0.774472 of unit cell:	Completed after 0 iterations at t[s]:  10488.71
	FillingsUpdate:  mu: -0.172088746  nElectrons: 376.000000
	Linear fluid (dielectric constant: 78.4, screening length: 5.74355 Bohr) occupying 0.774463 of unit cell:	Completed after 0 iterations at t[s]:  10555.96
SCF: Cycle: 46   F: -2196.442082998241403   dF: -5.722e-09   |Residual|: 1.261e-04   |deigs|: 4.223e-05  t[s]:  10557.54
SCF: Converged (|Delta E|<1.000000e-08 for 2 iters).

Single-point solvation energy estimate, DeltaF = +0.011906659913166

# Ionic positions in lattice coordinates:
ion Fe   0.443593097077793   0.268152485695685   0.496257617428186 0
ion Fe   0.943593097077793   0.268152485695685   0.496257617428186 0
ion Fe   0.389824010007845   0.571333191039078   0.496408581885079 0
ion Fe   0.889824010007845   0.571333191039078   0.496408581885079 0
ion Fe   0.345096594904008   0.875703133669953   0.504207358388182 0
ion Fe   0.845096594904008   0.875703133669953   0.504207358388182 0
ion Fe   0.291379679768419   0.178827257460754   0.504163534924290 0
ion Fe   0.791379679768419   0.178827257460754   0.504163534924290 0
ion Fe   0.041382611295849   0.678819965894555   0.496459378337488 0
ion Fe   0.541382611295850   0.678819965894555   0.496459378337488 0
ion Fe   0.095096555859223   0.375700529830229   0.496381534050826 0
ion Fe   0.595096555859223   0.375700529830229   0.496381534050826 0
ion Fe   0.139856959268164   0.071312212572021   0.504284244150711 0
ion Fe   0.639856959268165   0.071312212572021   0.504284244150711 0
ion Fe   0.193545927880919   0.768115789023632   0.504302403832356 0
ion Fe   0.693545927880919   0.768115789023632   0.504302403832356 0
ion S   0.492434441037722   0.473423431538421   0.567189044399937 0
ion S   0.992434441037722   0.473423431538421   0.567189044399937 0
ion S   0.392198712902455   0.081532018633743   0.572051686650139 0
ion S   0.892198712902455   0.081532018633743   0.572051686650139 0
ion S   0.342788801650252   0.365652612121885   0.428422866310662 0
ion S   0.842788801650252   0.365652612121885   0.428422866310662 0
ion S   0.296441107843432   0.674072035999459   0.572137107556185 0
ion S   0.796441107843432   0.674072035999459   0.572137107556185 0
ion S   0.242433550652833   0.973412474323702   0.433449244808254 0
ion S   0.742433550652833   0.973412474323702   0.433449244808254 0
ion S   0.046498786129616   0.173914427324847   0.428506213739666 0
ion S   0.546498786129616   0.173914427324847   0.428506213739666 0
ion S   0.092830913086918   0.865614028336155   0.572215896712265 0
ion S   0.592830913086918   0.865614028336155   0.572215896712265 0
ion S   0.142104190923536   0.581564672972591   0.428483660570437 0
ion S   0.642104190923537   0.581564672972591   0.428483660570437 0
ion S   0.188553013437482   0.273065060399839   0.572068202951332 0
ion S   0.688553013437482   0.273065060399839   0.572068202951332 0
ion S   0.438525087621706   0.772942673163446   0.428540136251348 0
ion S   0.938525087621706   0.772942673163446   0.428540136251348 0


# Forces in Lattice coordinates:
force Fe  -0.022866840446577   0.016572817617798  -0.030395298529775 0
force Fe  -0.022866840446577   0.016572817617798  -0.030395298529775 0
force Fe   0.005623411462934   0.000129282784610  -0.027612386527400 0
force Fe   0.005623411462934   0.000129282784610  -0.027612386527400 0
force Fe  -0.024687092911071  -0.011022184538651   0.063353664668310 0
force Fe  -0.024687092911071  -0.011022184538651   0.063353664668310 0
force Fe   0.039261120317567   0.003190877899937   0.054197206741365 0
force Fe   0.039261120317567   0.003190877899937   0.054197206741365 0
force Fe   0.029128750545932   0.003346156281349  -0.024909456023378 0
force Fe   0.029128750545932   0.003346156281349  -0.024909456023378 0
force Fe  -0.025343045961317  -0.009845677308987  -0.029022971564205 0
force Fe  -0.025343045961317  -0.009845677308987  -0.029022971564205 0
force Fe   0.008290160930436   0.000635057725866   0.050169776749921 0
force Fe   0.008290160930436   0.000635057725866   0.050169776749921 0
force Fe  -0.014749260704528   0.014936171804136   0.056999941149992 0
force Fe  -0.014749260704528   0.014936171804136   0.056999941149992 0
force S   0.001105527705907  -0.000540278333131  -0.013702392556509 0
force S   0.001105527705907  -0.000540278333131  -0.013702392556509 0
force S  -0.011446150732018   0.002735807523020  -0.042681070485725 0
force S  -0.011446150732018   0.002735807523020  -0.042681070485725 0
force S   0.009339009411291  -0.004555920125418   0.043854981784321 0
force S   0.009339009411291  -0.004555920125418   0.043854981784321 0
force S   0.009268847554736   0.004512770781905  -0.041481514692866 0
force S   0.009268847554736   0.004512770781905  -0.041481514692866 0
force S   0.000286863189783   0.000080580820907   0.010909798489545 0
force S   0.000286863189783   0.000080580820907   0.010909798489545 0
force S   0.007431301779780   0.005799409131002   0.041357641267174 0
force S   0.007431301779780   0.005799409131002   0.041357641267174 0
force S   0.005812685693642  -0.005836628928237  -0.041417161635530 0
force S   0.005812685693642  -0.005836628928237  -0.041417161635530 0
force S  -0.009152451272235   0.002192565263532   0.044156693083372 0
force S  -0.009152451272235   0.002192565263532   0.044156693083372 0
force S  -0.007335079643610  -0.004368144884481  -0.040167442526402 0
force S  -0.007335079643610  -0.004368144884481  -0.040167442526402 0
force S  -0.006848484932991  -0.004371459361424   0.042209246080455 0
force S  -0.006848484932991  -0.004371459361424   0.042209246080455 0

# Energy components:
   A_diel =        0.0117902666445330
   Eewald =     8130.6269922254532503
       EH =    10025.6894511234713718
     Eloc =   -20808.0585462404778809
      Enl =      329.8040195010005959
      Exc =     -317.9638938540257413
 Exc_core =       47.9239769302382683
       KE =      395.5914310396483984
-------------------------------------
     Etot =    -2196.3747790080478808
       TS =        0.0673039901935153
-------------------------------------
        F =    -2196.4420829982414034

IonicMinimize: Iter:   0  F: -2196.442082998241403  |grad|_K:  0.000e+00  t[s]:  10566.12
IonicMinimize: Converged (|grad|_K<1.000000e-04).

#--- Lowdin population analysis ---
# oxidation-state Fe -0.394 -0.394 -0.394 -0.394 -0.394 -0.394 -0.394 -0.394 -0.394 -0.394 -0.394 -0.394 -0.395 -0.395 -0.394 -0.394
# oxidation-state S +0.595 +0.595 +0.468 +0.468 +0.467 +0.467 +0.468 +0.468 +0.595 +0.595 +0.468 +0.468 +0.468 +0.468 +0.468 +0.468 +0.468 +0.468 +0.468 +0.468


Dumping 'NbTe2.fillings' ... done
Dumping 'NbTe2.wfns' ... done
Dumping 'NbTe2.fluidState' ... done
Dumping 'NbTe2.eigenvals' ... done
End date and time: Sun Jul  5 09:57:12 2020  (Duration: 0-2:56:14.30)
Done!
