
*************** JDFTx 1.5.0  ***************

Start date and time: Sun Jan 17 10:00:06 2021
Executable jdftx_gpu with command-line: -i Charged.in -o Charged.out
Running on hosts (process indices):  amax (0-4)
Divided in process groups (process indices):  0 (0)  1 (1)  2 (2)  3 (3)  4 (4)
gpuInit: Found compatible cuda device 0 'Tesla K80'
gpuInit: Found compatible cuda device 1 'Tesla K80'
gpuInit: Found compatible cuda device 2 'Tesla K80'
gpuInit: Found compatible cuda device 3 'Tesla K80'
gpuInit: Found compatible cuda device 4 'Tesla K80'
gpuInit: Selected device 0
Resource initialization completed at t[s]:      2.74
Run totals: 5 processes, 24 threads, 5 GPUs


Input parsed successfully to the following command list (including defaults):

basis kpoint-dependent
cache-projectors no
coords-type Lattice
core-overlap-check none
coulomb-interaction Slab 001
coulomb-truncation-embed 0.5 0.5 0.5
davidson-band-ratio 1.1
dump End State
dump-name NbTe2.$VAR
elec-cutoff 20
elec-eigen-algo Davidson
elec-ex-corr gga-PBE
elec-initial-charge -1.000000
elec-initial-magnetization 30.000000 no
elec-smearing Gauss 0.0073499
electronic-minimize  \
	dirUpdateScheme      FletcherReeves \
	linminMethod         DirUpdateRecommended \
	nIterations          200 \
	history              15 \
	knormThreshold       0 \
	energyDiffThreshold  1e-08 \
	nEnergyDiff          2 \
	alphaTstart          1 \
	alphaTmin            1e-10 \
	updateTestStepSize   yes \
	alphaTreduceFactor   0.1 \
	alphaTincreaseFactor 3 \
	nAlphaAdjustMax      3 \
	wolfeEnergy          0.0001 \
	wolfeGradient        0.9 \
	fdTest               no
exchange-regularization WignerSeitzTruncated
fluid LinearPCM 298.000000 1.013250
fluid-anion F- 1 MeanFieldLJ \
	epsBulk 1 \
	pMol 0 \
	epsInf 1 \
	Pvap 0 \
	sigmaBulk 0 \
	Rvdw 2.24877 \
	Res 0 \
	tauNuc 343133
fluid-cation Na+ 1 MeanFieldLJ \
	epsBulk 1 \
	pMol 0 \
	epsInf 1 \
	Pvap 0 \
	sigmaBulk 0 \
	Rvdw 2.19208 \
	Res 0 \
	tauNuc 343133
fluid-ex-corr lda-TF lda-PZ
fluid-gummel-loop 10 1.000000e-05
fluid-minimize  \
	dirUpdateScheme      PolakRibiere \
	linminMethod         DirUpdateRecommended \
	nIterations          400 \
	history              15 \
	knormThreshold       1e-11 \
	energyDiffThreshold  0 \
	nEnergyDiff          2 \
	alphaTstart          1 \
	alphaTmin            1e-10 \
	updateTestStepSize   yes \
	alphaTreduceFactor   0.1 \
	alphaTincreaseFactor 3 \
	nAlphaAdjustMax      6 \
	wolfeEnergy          0.0001 \
	wolfeGradient        0.9 \
	fdTest               no
fluid-solvent H2O 55.338 ScalarEOS \
	epsBulk 78.4 \
	pMol 0.92466 \
	epsInf 1.77 \
	Pvap 1.06736e-10 \
	sigmaBulk 4.62e-05 \
	Rvdw 2.61727 \
	Res 1.42 \
	tauNuc 343133 \
	poleEl 15 7 1
forces-output-coords Positions
initial-state NbTe2.$VAR
ion Ti   0.166666628871778   0.083333387753221   0.566175256878475 1
ion Ti   0.083333386878221   0.166666629746778   0.433824743121525 1
ion Ti   0.416666628871778   0.083333387753221   0.566175256878475 1
ion Ti   0.333333386878221   0.166666629746778   0.433824743121525 1
ion Ti   0.666666628871778   0.083333387753221   0.566175256878475 1
ion Ti   0.583333386878221   0.166666629746778   0.433824743121525 1
ion Ti   0.916666628871778   0.083333387753221   0.566175256878475 1
ion Ti   0.833333386878221   0.166666629746778   0.433824743121525 1
ion Ti   0.166666628871778   0.333333387753221   0.566175256878475 1
ion Ti   0.083333386878221   0.416666629746779   0.433824743121525 1
ion Ti   0.416666628871778   0.333333387753221   0.566175256878475 1
ion Ti   0.333333386878221   0.416666629746779   0.433824743121525 1
ion Ti   0.666666628871778   0.333333387753221   0.566175256878475 1
ion Ti   0.583333386878221   0.416666629746779   0.433824743121525 1
ion Ti   0.916666628871778   0.333333387753221   0.566175256878475 1
ion Ti   0.833333386878221   0.416666629746779   0.433824743121525 1
ion Ti   0.166666628871778   0.583333387753221   0.566175256878475 1
ion Ti   0.083333386878221   0.666666629746778   0.433824743121525 1
ion Ti   0.416666628871778   0.583333387753221   0.566175256878475 1
ion Ti   0.333333386878221   0.666666629746778   0.433824743121525 1
ion Ti   0.666666628871778   0.583333387753221   0.566175256878475 1
ion Ti   0.583333386878221   0.666666629746778   0.433824743121525 1
ion Ti   0.916666628871778   0.583333387753221   0.566175256878475 1
ion Ti   0.833333386878221   0.666666629746778   0.433824743121525 1
ion Ti   0.166666628871778   0.833333387753221   0.566175256878475 1
ion Ti   0.083333386878221   0.916666629746778   0.433824743121525 1
ion Ti   0.416666628871778   0.833333387753221   0.566175256878475 1
ion Ti   0.333333386878221   0.916666629746778   0.433824743121525 1
ion Ti   0.666666628871778   0.833333387753221   0.566175256878475 1
ion Ti   0.583333386878221   0.916666629746778   0.433824743121525 1
ion Ti   0.916666628871778   0.833333387753221   0.566175256878475 1
ion Ti   0.833333386878221   0.916666629746778   0.433824743121525 1
ion C   0.000000007874999   0.000000008750000   0.500000000000000 1
ion C   0.250000007874999   0.000000008750000   0.500000000000000 1
ion C   0.500000007875000   0.000000008750000   0.500000000000000 1
ion C   0.750000007875000   0.000000008750000   0.500000000000000 1
ion C   0.000000007874999   0.250000008750000   0.500000000000000 1
ion C   0.250000007874999   0.250000008750000   0.500000000000000 1
ion C   0.500000007875000   0.250000008750000   0.500000000000000 1
ion C   0.750000007875000   0.250000008750000   0.500000000000000 1
ion C   0.000000007874999   0.500000008750000   0.500000000000000 1
ion C   0.250000007874999   0.500000008750000   0.500000000000000 1
ion C   0.500000007875000   0.500000008750000   0.500000000000000 1
ion C   0.750000007875000   0.500000008750000   0.500000000000000 1
ion C   1.000000007875000   0.750000008750000   0.500000000000000 1
ion C   0.250000007874999   0.750000008750000   0.500000000000000 1
ion C   0.500000007875000   0.750000008750000   0.500000000000000 1
ion C   0.750000007875000   0.750000008750000   0.500000000000000 1
ion-species GBRV/$ID_pbe.uspp
ion-width Ecut
ionic-minimize  \
	dirUpdateScheme      L-BFGS \
	linminMethod         DirUpdateRecommended \
	nIterations          500 \
	history              15 \
	knormThreshold       0.0001 \
	energyDiffThreshold  1e-06 \
	nEnergyDiff          2 \
	alphaTstart          1 \
	alphaTmin            1e-10 \
	updateTestStepSize   yes \
	alphaTreduceFactor   0.1 \
	alphaTincreaseFactor 3 \
	nAlphaAdjustMax      3 \
	wolfeEnergy          0.0001 \
	wolfeGradient        0.9 \
	fdTest               no
kpoint   0.000000000000   0.000000000000   0.000000000000  1.00000000000000
kpoint-folding 5 5 1 
latt-move-scale 1 1 1
latt-scale 1.88973 1.88973 1.88973 
lattice Triclinic 12.1569 12.1569 17.2781 90 90 120
lattice-minimize  \
	dirUpdateScheme      L-BFGS \
	linminMethod         DirUpdateRecommended \
	nIterations          0 \
	history              15 \
	knormThreshold       0 \
	energyDiffThreshold  1e-06 \
	nEnergyDiff          2 \
	alphaTstart          1 \
	alphaTmin            1e-10 \
	updateTestStepSize   yes \
	alphaTreduceFactor   0.1 \
	alphaTincreaseFactor 3 \
	nAlphaAdjustMax      3 \
	wolfeEnergy          0.0001 \
	wolfeGradient        0.9 \
	fdTest               no
lcao-params -1 1e-06 0.0073499
pcm-variant CANDLE
spintype z-spin
subspace-rotation-factor 1 yes
symmetries automatic
symmetry-threshold 0.0001



---------- Setting up symmetries ----------

Found 24 point-group symmetries of the bravais lattice
Found 192 space-group symmetries with basis
Applied RMS atom displacement 1.48377e-06 bohrs to make symmetries exact.

---------- Initializing the Grid ----------
R = 
[    22.9732   -11.4866          0  ]
[          0    19.8954          0  ]
[          0          0    32.6508  ]
unit cell volume = 14923.4
G =
[   0.273501   0.157906         -0  ]
[          0   0.315811          0  ]
[          0         -0   0.192436  ]
Minimum fftbox size, Smin = [  96  96  132  ]
Chosen fftbox size, S = [  96  96  140  ]

---------- Exchange Correlation functional ----------
Initalized PBE GGA exchange.
Initalized PBE GGA correlation.

---------- Setting up pseudopotentials ----------
Width of ionic core gaussian charges (only for fluid interactions / plotting) set to 0.397384

Reading pseudopotential file '/home/guoxy/vasp/jdftx-1.5.0/build/pseudopotentials/GBRV/ti_pbe.uspp':
  Title: Ti.  Created by USPP 7.3.6 on 31-3-15
  Reference state energy: -59.020943.  12 valence electrons in orbitals:
    |300>  occupation: 2  eigenvalue: -2.777623
    |310>  occupation: 6  eigenvalue: -1.894596
    |400>  occupation: 2  eigenvalue: -0.438610
    |320>  occupation: 1  eigenvalue: -0.583119
  lMax: 2  lLocal: 3  QijEcut: 6
  6 projectors sampled on a log grid with 597 points:
    l: 0  eig: -2.777624  rCut: 1.8
    l: 0  eig: -0.438611  rCut: 1.8
    l: 1  eig: -1.894596  rCut: 1.8
    l: 1  eig: 0.500000  rCut: 1.8
    l: 2  eig: -0.583118  rCut: 1.8
    l: 2  eig: 0.150000  rCut: 1.8
  Partial core density with radius 0.8
  Transforming core density to a uniform radial grid of dG=0.02 with 1481 points.
  Transforming local potential to a uniform radial grid of dG=0.02 with 1481 points.
  Transforming nonlocal projectors to a uniform radial grid of dG=0.02 with 432 points.
  Transforming density augmentations to a uniform radial grid of dG=0.02 with 1481 points.
  Transforming atomic orbitals to a uniform radial grid of dG=0.02 with 432 points.
  Core radius for overlap checks: 1.80 bohrs.

Reading pseudopotential file '/home/guoxy/vasp/jdftx-1.5.0/build/pseudopotentials/GBRV/c_pbe.uspp':
  Title: C.  Created by USPP 7.3.6 on 3-2-2014
  Reference state energy: -5.406344.  4 valence electrons in orbitals:
    |200>  occupation: 2  eigenvalue: -0.504890
    |210>  occupation: 2  eigenvalue: -0.194356
  lMax: 1  lLocal: 2  QijEcut: 5
  4 projectors sampled on a log grid with 503 points:
    l: 0  eig: -0.504890  rCut: 1.3
    l: 0  eig: 0.000000  rCut: 1.3
    l: 1  eig: -0.194357  rCut: 1.3
    l: 1  eig: 0.000000  rCut: 1.3
  Partial core density with radius 1.1
  Transforming core density to a uniform radial grid of dG=0.02 with 1481 points.
  Transforming local potential to a uniform radial grid of dG=0.02 with 1481 points.
  Transforming nonlocal projectors to a uniform radial grid of dG=0.02 with 432 points.
  Transforming density augmentations to a uniform radial grid of dG=0.02 with 1481 points.
  Transforming atomic orbitals to a uniform radial grid of dG=0.02 with 432 points.
  Core radius for overlap checks: 1.30 bohrs.

Initialized 2 species with 48 total atoms.

Folded 1 k-points by 5x5x1 to 25 k-points.

---------- Setting up k-points, bands, fillings ----------
Adding inversion symmetry to k-mesh for non-inversion-symmetric unit cell.
Reduced to 5 k-points under symmetry. 
Computing the number of bands and number of electrons
Calculating initial fillings.
nElectrons: 447.000000   nBands: 384   nStates: 10

----- Setting up reduced wavefunction bases (one per k-point) -----
average nbasis = 63729.080 , ideal nbasis = 63753.870

---------- Setting up coulomb interaction ----------
Fluid mode embedding: using embedded box, but periodic Coulomb kernel.
(Fluid response is responsible for (approximate) separation between periodic images.)
Setting up double-sized grid for truncated Coulomb potentials:
R = 
[    22.9732   -11.4866          0  ]
[          0    19.8954          0  ]
[          0          0    65.3016  ]
unit cell volume = 29846.8
G =
[   0.273501   0.157906         -0  ]
[          0   0.315811          0  ]
[          0         -0   0.096218  ]
Chosen fftbox size, S = [  96  96  280  ]
Integer grid location selected as the embedding center:
   Grid: [  48  48  70  ]
   Lattice: [  0.5  0.5  0.5  ]
   Cartesian: [  5.7433  9.94769  16.3254  ]
Constructing Wigner-Seitz cell: 8 faces (6 quadrilaterals, 2 hexagons)
Range-separation parameter for embedded mesh potentials due to point charges: 0.617142 bohrs.

Initializing van der Waals corrections
	NOTE: vdW corrections apply only for interactions with fluid.
	Ti:  C6:  187.33 Eh-a0^6  R0: 2.952 a0
	 C:  C6:   30.35 Eh-a0^6  R0: 2.744 a0

---------- Setting up ewald sum ----------
Optimum gaussian width for ewald sums = 6.491360 bohr.
Real space sum over 605 unit cells with max indices [  5  5  2  ]
Reciprocal space sum over 7875 terms with max indices [  7  7  17  ]

---------- Allocating electronic variables ----------
Initializing wave functions:  linear combination of atomic orbitals
Ti pseudo-atom occupations:   s ( 2 0 )  p ( 6 )  d ( 4 )
C pseudo-atom occupations:   s ( 2 )  p ( 2 )
	FillingsUpdate:  mu: +0.225361861  nElectrons: 447.000000  magneticMoment: [ Abs: 47.80833  Tot: +47.80505 ]
LCAOMinimize: Iter:   0  F: -1837.8644643503328098  |grad|_K:  1.438e-02  alpha:  1.000e+00
	FillingsUpdate:  mu: -0.053585026  nElectrons: 447.000000  magneticMoment: [ Abs: 7.90930  Tot: +7.90161 ]
LCAOMinimize: Iter:   1  F: -1916.2758475444875330  |grad|_K:  6.461e-03  alpha:  6.079e-01  linmin:  1.603e-01  cgtest: -1.376e+00  t[s]:    186.57
LCAOMinimize: 	Bad step direction: g.d > 0.
LCAOMinimize: 	Undoing step.
LCAOMinimize: 	Step failed: resetting search direction.
	FillingsUpdate:  mu: -0.053585026  nElectrons: 447.000000  magneticMoment: [ Abs: 7.90930  Tot: +7.90161 ]
LCAOMinimize: Iter:   2  F: -1916.2758475444875330  |grad|_K:  6.461e-03  alpha:  0.000e+00
	FillingsUpdate:  mu: +0.072694634  nElectrons: 447.000000  magneticMoment: [ Abs: 10.59114  Tot: +10.07722 ]
LCAOMinimize: Iter:   3  F: -1945.0312290992617363  |grad|_K:  5.041e-03  alpha:  3.042e-01  linmin: -3.593e-01  cgtest:  4.372e-01  t[s]:    286.15
	FillingsUpdate:  mu: +0.112789892  nElectrons: 447.000000  magneticMoment: [ Abs: 11.85535  Tot: +10.88490 ]
LCAOMinimize: Iter:   4  F: -1951.1808967307797502  |grad|_K:  9.540e-04  alpha:  1.337e-01  linmin: -4.358e-01  cgtest:  7.521e-01  t[s]:    344.77
LCAOMinimize: Encountered beta<0, resetting CG.
	FillingsUpdate:  mu: +0.115646653  nElectrons: 447.000000  magneticMoment: [ Abs: 11.05835  Tot: +10.09816 ]
LCAOMinimize: Iter:   5  F: -1951.3555501215707864  |grad|_K:  2.345e-04  alpha:  2.704e-01  linmin:  8.076e-02  cgtest: -3.707e-01  t[s]:    403.49
LCAOMinimize: 	Predicted alpha/alphaT>3.000000, increasing alphaT to 8.112825e-01.
	FillingsUpdate:  mu: +0.112932898  nElectrons: 447.000000  magneticMoment: [ Abs: 6.15564  Tot: +5.28246 ]
LCAOMinimize: Iter:   6  F: -1951.3837995870749182  |grad|_K:  2.217e-04  alpha:  8.944e-01  linmin:  1.580e-02  cgtest:  5.468e-01  t[s]:    480.29
	FillingsUpdate:  mu: +0.111939243  nElectrons: 447.000000  magneticMoment: [ Abs: 4.85687  Tot: +4.07205 ]
LCAOMinimize: Iter:   7  F: -1951.3926954582575490  |grad|_K:  7.156e-05  alpha:  2.544e-01  linmin:  7.884e-03  cgtest:  4.622e-02  t[s]:    538.21
LCAOMinimize: 	Predicted alpha/alphaT>3.000000, increasing alphaT to 7.632992e-01.
	FillingsUpdate:  mu: +0.112772215  nElectrons: 447.000000  magneticMoment: [ Abs: 2.00644  Tot: +1.61047 ]
LCAOMinimize: Iter:   8  F: -1951.3970524709529855  |grad|_K:  3.159e-05  alpha:  1.144e+00  linmin: -1.572e-02  cgtest: -1.489e-03  t[s]:    615.44
	FillingsUpdate:  mu: +0.113045471  nElectrons: 447.000000  magneticMoment: [ Abs: 0.56099  Tot: +0.43451 ]
LCAOMinimize: Iter:   9  F: -1951.3978814031183902  |grad|_K:  1.867e-05  alpha:  1.090e+00  linmin:  2.786e-03  cgtest: -5.803e-02  t[s]:    674.46
	FillingsUpdate:  mu: +0.112796024  nElectrons: 447.000000  magneticMoment: [ Abs: 0.32279  Tot: +0.24630 ]
LCAOMinimize: Iter:  10  F: -1951.3979628908871291  |grad|_K:  8.988e-06  alpha:  3.177e-01  linmin:  1.407e-03  cgtest:  8.576e-03  t[s]:    733.79
	FillingsUpdate:  mu: +0.112474477  nElectrons: 447.000000  magneticMoment: [ Abs: 0.08160  Tot: +0.06362 ]
LCAOMinimize: Iter:  11  F: -1951.3980097047710842  |grad|_K:  2.548e-06  alpha:  7.843e-01  linmin:  1.847e-03  cgtest: -1.202e-02  t[s]:    792.90
	FillingsUpdate:  mu: +0.112676328  nElectrons: 447.000000  magneticMoment: [ Abs: 0.05018  Tot: +0.04007 ]
LCAOMinimize: Iter:  12  F: -1951.3980122429359199  |grad|_K:  9.667e-07  alpha:  5.288e-01  linmin:  4.909e-06  cgtest:  8.308e-03  t[s]:    852.18
	FillingsUpdate:  mu: +0.112687502  nElectrons: 447.000000  magneticMoment: [ Abs: 0.04001  Tot: +0.03223 ]
LCAOMinimize: Iter:  13  F: -1951.3980124897018413  |grad|_K:  6.005e-07  alpha:  3.564e-01  linmin: -6.034e-05  cgtest: -7.185e-05  t[s]:    910.98
	FillingsUpdate:  mu: +0.112661609  nElectrons: 447.000000  magneticMoment: [ Abs: 0.01564  Tot: +0.01164 ]
LCAOMinimize: Iter:  14  F: -1951.3980127514423657  |grad|_K:  2.207e-07  alpha:  9.792e-01  linmin:  1.319e-04  cgtest: -2.283e-03  t[s]:    969.75
LCAOMinimize: Converged (|Delta F|<1.000000e-06 for 2 iters).
----- createFluidSolver() ----- (Fluid-side solver setup)
   Initializing fluid molecule 'H2O'
     Initializing site 'O'
       Electron density: proportional to exp(-r/0.36935)*erfc((r-0.51523)/0.36823) with norm 6.826
       Charge density: gaussian nuclear width 0.478731 with net site charge 0.826
       Polarizability: cuspless exponential with width 0.32 and norm 3.73
       Hard sphere radius: 2.57003 bohrs
       Positions in reference frame:
         [ +0.000000 +0.000000 +0.000000 ]
     Initializing site 'H'
       Electron density: proportional to exp(-r/0.34641)*erfc((r-0)/0.390882) with norm 0.587
       Charge density: gaussian nuclear width 0.377945 with net site charge -0.413
       Polarizability: cuspless exponential with width 0.39 and norm 3.3
       Positions in reference frame:
         [ +0.000000 -1.441945 +1.122523 ]
         [ +0.000000 +1.441945 +1.122523 ]
     Net charge: 0   dipole magnitude: 0.927204
     Initializing spherical shell mfKernel with radius 2.61727 Bohr
     deltaS corrections:
       site 'O': -7.54299
       site 'H': -6.83917
   Initializing fluid molecule 'Na+'
     Initializing site 'Na'
       Electron density: proportional to exp(-r/0.19682)*erfc((r-0.71491)/0.41314) with norm 8.1383
       Charge density: gaussian nuclear width 0.365347 with net site charge -1
       Hard sphere radius: 1.86327 bohrs
       Positions in reference frame:
         [ +0.000000 +0.000000 +0.000000 ]
     Net charge: -1   dipole magnitude: 0
     Initializing gaussian mfKernel with width: 1.55004 Bohr
     deltaS corrections:
       site 'Na': -22.3555
   Initializing fluid molecule 'F-'
     Initializing site 'F'
       Electron density: proportional to exp(-r/0.38886)*erfc((r-0)/0.438782) with norm 8
       Charge density: gaussian nuclear width 0.374796 with net site charge 1
       Hard sphere radius: 2.39995 bohrs
       Positions in reference frame:
         [ +0.000000 +0.000000 +0.000000 ]
     Net charge: 1   dipole magnitude: 0
     Initializing gaussian mfKernel with width: 1.59012 Bohr
     deltaS corrections:
       site 'F': -9.04335

Correction to mu due to finite nuclear width = -0.0148929
   Cavity determined by nc: 0.00142 and sigma: 0.707107
   Nonlocal vdW cavity from gaussian model electron density with norm = 8 and sigma = 0.993594 bohr
   Charge asymmetry in cavity with sensitivity pCavity = 36.5 e-bohr/Eh
   Electrostatic cavity expanded by eta = 1.46 bohrs
   Weighted density cavitation model constrained by Nbulk: 0.0049383 bohr^-3, Pvap: 3.14029 kPa, Rvdw: 2.61727 bohr and sigmaBulk: 4.62e-05 Eh/bohr^2 at T: 298 K.
   Weighted density dispersion model using vdW pair potentials with single solvent site with sqrtC6eff: 0.77 SI.


---- Citations for features of the code used in this run ----

   Software package:
      R. Sundararaman, K. Letchworth-Weaver, K.A. Schwarz, D. Gunceler, Y. Ozhabes and T.A. Arias, 'JDFTx: software for joint density-functional theory', SoftwareX 6, 278 (2017)

   gga-PBE exchange-correlation functional:
      J.P. Perdew, K. Burke and M. Ernzerhof, Phys. Rev. Lett. 77, 3865 (1996)

   Pseudopotentials:
      KF Garrity, JW Bennett, KM Rabe and D Vanderbilt, Comput. Mater. Sci. 81, 446 (2014)

   Truncated Coulomb potentials:
      R. Sundararaman and T.A. Arias, Phys. Rev. B 87, 165122 (2013)

   Van der Waals correction pair-potentials:
      S. Grimme, J. Comput. Chem. 27, 1787 (2006)

   Charge-asymmetric nonlocally-determined local-electric (CANDLE) solvation model:
      R. Sundararaman and W.A. Goddard III, J. Chem. Phys. 142, 064107 (2015)

   Total energy minimization with Auxiliary Hamiltonian:
      C. Freysoldt, S. Boeck, and J. Neugebauer, Phys. Rev. B 79, 241103(R) (2009)

This list may not be complete. Please suggest additional citations or
report any other bugs at https://github.com/shankar1729/jdftx/issues

Initialization completed successfully at t[s]:    977.64

Fluid solver invoked on fresh (partially random / LCAO) wavefunctions
Running a vacuum solve first:

-------- Initial electronic minimization -----------
	FillingsUpdate:  mu: +0.112661609  nElectrons: 447.000000  magneticMoment: [ Abs: 0.01564  Tot: +0.01164 ]
ElecMinimize: Iter:   0  F: -1951.398012751429633  |grad|_K:  1.923e-04  alpha:  1.000e+00
	FillingsUpdate:  mu: -0.051635978  nElectrons: 447.000000  magneticMoment: [ Abs: 0.01478  Tot: +0.01016 ]
	SubspaceRotationAdjust: set factor to 1
ElecMinimize: Iter:   1  F: -1954.599578235390481  |grad|_K:  1.115e-04  alpha:  3.588e-01  linmin:  6.074e-05  t[s]:   1105.85
	FillingsUpdate:  mu: -0.043901962  nElectrons: 447.000000  magneticMoment: [ Abs: 0.01233  Tot: +0.01055 ]
	SubspaceRotationAdjust: set factor to 0.77
ElecMinimize: Iter:   2  F: -1956.252268062124358  |grad|_K:  7.503e-05  alpha:  5.478e-01  linmin: -8.326e-05  t[s]:   1184.69
	FillingsUpdate:  mu: -0.072031830  nElectrons: 447.000000  magneticMoment: [ Abs: 0.00799  Tot: +0.00693 ]
	SubspaceRotationAdjust: set factor to 0.605
ElecMinimize: Iter:   3  F: -1956.980732272125806  |grad|_K:  5.000e-05  alpha:  5.177e-01  linmin:  4.843e-05  t[s]:   1263.12
	FillingsUpdate:  mu: -0.150536861  nElectrons: 447.000000  magneticMoment: [ Abs: 0.00761  Tot: +0.00709 ]
	SubspaceRotationAdjust: set factor to 0.52
ElecMinimize: Iter:   4  F: -1957.321326368727568  |grad|_K:  2.834e-05  alpha:  5.651e-01  linmin:  1.125e-03  t[s]:   1341.73
	FillingsUpdate:  mu: -0.136599588  nElectrons: 447.000000  magneticMoment: [ Abs: 0.00693  Tot: +0.00652 ]
	SubspaceRotationAdjust: set factor to 0.584
ElecMinimize: Iter:   5  F: -1957.434792203210463  |grad|_K:  1.868e-05  alpha:  6.288e-01  linmin:  7.418e-05  t[s]:   1420.51
	FillingsUpdate:  mu: -0.131046641  nElectrons: 447.000000  magneticMoment: [ Abs: 0.00646  Tot: +0.00612 ]
	SubspaceRotationAdjust: set factor to 0.602
ElecMinimize: Iter:   6  F: -1957.476820772657447  |grad|_K:  1.328e-05  alpha:  5.083e-01  linmin:  6.783e-06  t[s]:   1499.50
	FillingsUpdate:  mu: -0.139681978  nElectrons: 447.000000  magneticMoment: [ Abs: 0.00698  Tot: +0.00671 ]
	SubspaceRotationAdjust: set factor to 0.784
ElecMinimize: Iter:   7  F: -1957.501311477658646  |grad|_K:  8.524e-06  alpha:  5.691e-01  linmin:  1.383e-05  t[s]:   1578.32
	FillingsUpdate:  mu: -0.146218841  nElectrons: 447.000000  magneticMoment: [ Abs: 0.00789  Tot: +0.00766 ]
	SubspaceRotationAdjust: set factor to 0.896
ElecMinimize: Iter:   8  F: -1957.511928921528806  |grad|_K:  6.865e-06  alpha:  6.006e-01  linmin:  4.247e-06  t[s]:   1657.49
	FillingsUpdate:  mu: -0.144926156  nElectrons: 447.000000  magneticMoment: [ Abs: 0.00886  Tot: +0.00864 ]
	SubspaceRotationAdjust: set factor to 1.03
ElecMinimize: Iter:   9  F: -1957.516984506323524  |grad|_K:  4.079e-06  alpha:  4.388e-01  linmin: -2.233e-06  t[s]:   1736.40
	FillingsUpdate:  mu: -0.144363724  nElectrons: 447.000000  magneticMoment: [ Abs: 0.00999  Tot: +0.00975 ]
	SubspaceRotationAdjust: set factor to 1.2
ElecMinimize: Iter:  10  F: -1957.519124796880760  |grad|_K:  2.916e-06  alpha:  5.236e-01  linmin: -8.340e-06  t[s]:   1814.85
	FillingsUpdate:  mu: -0.146961277  nElectrons: 447.000000  magneticMoment: [ Abs: 0.01118  Tot: +0.01090 ]
	SubspaceRotationAdjust: set factor to 1.08
ElecMinimize: Iter:  11  F: -1957.520053732454016  |grad|_K:  2.220e-06  alpha:  4.445e-01  linmin: -1.630e-06  t[s]:   1893.74
	FillingsUpdate:  mu: -0.145731578  nElectrons: 447.000000  magneticMoment: [ Abs: 0.01259  Tot: +0.01226 ]
	SubspaceRotationAdjust: set factor to 1.04
ElecMinimize: Iter:  12  F: -1957.520546948418087  |grad|_K:  1.506e-06  alpha:  4.075e-01  linmin: -8.664e-07  t[s]:   1972.19
	FillingsUpdate:  mu: -0.146041617  nElectrons: 447.000000  magneticMoment: [ Abs: 0.01429  Tot: +0.01388 ]
	SubspaceRotationAdjust: set factor to 1.32
ElecMinimize: Iter:  13  F: -1957.520822268865686  |grad|_K:  9.577e-07  alpha:  4.943e-01  linmin:  2.921e-06  t[s]:   2050.94
	FillingsUpdate:  mu: -0.146107748  nElectrons: 447.000000  magneticMoment: [ Abs: 0.01611  Tot: +0.01563 ]
	SubspaceRotationAdjust: set factor to 1.42
ElecMinimize: Iter:  14  F: -1957.520945182267951  |grad|_K:  7.722e-07  alpha:  5.464e-01  linmin:  1.319e-06  t[s]:   2130.04
	FillingsUpdate:  mu: -0.145720302  nElectrons: 447.000000  magneticMoment: [ Abs: 0.01799  Tot: +0.01744 ]
	SubspaceRotationAdjust: set factor to 1.25
ElecMinimize: Iter:  15  F: -1957.521000637186262  |grad|_K:  5.388e-07  alpha:  3.791e-01  linmin:  3.010e-08  t[s]:   2207.67
	FillingsUpdate:  mu: -0.146110017  nElectrons: 447.000000  magneticMoment: [ Abs: 0.02014  Tot: +0.01952 ]
	SubspaceRotationAdjust: set factor to 1.13
ElecMinimize: Iter:  16  F: -1957.521027445035543  |grad|_K:  3.829e-07  alpha:  3.763e-01  linmin:  3.481e-07  t[s]:   2285.63
	FillingsUpdate:  mu: -0.145819578  nElectrons: 447.000000  magneticMoment: [ Abs: 0.02262  Tot: +0.02193 ]
	SubspaceRotationAdjust: set factor to 1.13
ElecMinimize: Iter:  17  F: -1957.521041968281907  |grad|_K:  2.530e-07  alpha:  4.038e-01  linmin: -2.797e-07  t[s]:   2363.93
	FillingsUpdate:  mu: -0.145933007  nElectrons: 447.000000  magneticMoment: [ Abs: 0.02532  Tot: +0.02454 ]
	SubspaceRotationAdjust: set factor to 1.23
ElecMinimize: Iter:  18  F: -1957.521049059851521  |grad|_K:  1.842e-07  alpha:  4.514e-01  linmin: -1.967e-07  t[s]:   2442.27
	FillingsUpdate:  mu: -0.145985500  nElectrons: 447.000000  magneticMoment: [ Abs: 0.02848  Tot: +0.02761 ]
	SubspaceRotationAdjust: set factor to 1.41
ElecMinimize: Iter:  19  F: -1957.521052902846122  |grad|_K:  1.172e-07  alpha:  4.616e-01  linmin: -3.018e-08  t[s]:   2520.64
	FillingsUpdate:  mu: -0.145876837  nElectrons: 447.000000  magneticMoment: [ Abs: 0.03179  Tot: +0.03082 ]
	SubspaceRotationAdjust: set factor to 1.33
ElecMinimize: Iter:  20  F: -1957.521054432047549  |grad|_K:  9.932e-08  alpha:  4.535e-01  linmin: -1.040e-07  t[s]:   2598.37
	FillingsUpdate:  mu: -0.145956587  nElectrons: 447.000000  magneticMoment: [ Abs: 0.03537  Tot: +0.03429 ]
	SubspaceRotationAdjust: set factor to 1.15
ElecMinimize: Iter:  21  F: -1957.521055217642697  |grad|_K:  6.399e-08  alpha:  3.245e-01  linmin: -1.874e-07  t[s]:   2677.18
	FillingsUpdate:  mu: -0.145917745  nElectrons: 447.000000  magneticMoment: [ Abs: 0.04018  Tot: +0.03896 ]
	SubspaceRotationAdjust: set factor to 1.28
ElecMinimize: Iter:  22  F: -1957.521055671983504  |grad|_K:  4.396e-08  alpha:  4.520e-01  linmin:  2.115e-07  t[s]:   2755.60
	FillingsUpdate:  mu: -0.145913572  nElectrons: 447.000000  magneticMoment: [ Abs: 0.04594  Tot: +0.04454 ]
	SubspaceRotationAdjust: set factor to 1.55
ElecMinimize: Iter:  23  F: -1957.521055920968593  |grad|_K:  3.211e-08  alpha:  5.253e-01  linmin: -4.827e-07  t[s]:   2833.83
	FillingsUpdate:  mu: -0.145939050  nElectrons: 447.000000  magneticMoment: [ Abs: 0.05203  Tot: +0.05045 ]
	SubspaceRotationAdjust: set factor to 1.56
ElecMinimize: Iter:  24  F: -1957.521056035765241  |grad|_K:  2.878e-08  alpha:  4.534e-01  linmin: -2.425e-07  t[s]:   2912.20
	FillingsUpdate:  mu: -0.145911450  nElectrons: 447.000000  magneticMoment: [ Abs: 0.06007  Tot: +0.05826 ]
	SubspaceRotationAdjust: set factor to 1.52
ElecMinimize: Iter:  25  F: -1957.521056113191662  |grad|_K:  2.446e-08  alpha:  3.803e-01  linmin: -5.331e-07  t[s]:   2990.61
	FillingsUpdate:  mu: -0.145931580  nElectrons: 447.000000  magneticMoment: [ Abs: 0.07271  Tot: +0.07054 ]
	SubspaceRotationAdjust: set factor to 1.31
ElecMinimize: Iter:  26  F: -1957.521056181480617  |grad|_K:  2.597e-08  alpha:  4.639e-01  linmin: -2.608e-06  t[s]:   3068.91
	FillingsUpdate:  mu: -0.145924475  nElectrons: 447.000000  magneticMoment: [ Abs: 0.10491  Tot: +0.10181 ]
	SubspaceRotationAdjust: set factor to 1.42
ElecMinimize: Iter:  27  F: -1957.521056300627151  |grad|_K:  3.774e-08  alpha:  7.187e-01  linmin:  5.830e-07  t[s]:   3148.37
ElecMinimize: 	Predicted alpha/alphaT>3.000000, increasing alphaT to 2.156149e+00.
	FillingsUpdate:  mu: -0.145912161  nElectrons: 447.000000  magneticMoment: [ Abs: 0.42856  Tot: +0.41622 ]
	SubspaceRotationAdjust: set factor to 1.48
ElecMinimize: Iter:  28  F: -1957.521057301455357  |grad|_K:  1.785e-07  alpha:  2.894e+00  linmin:  4.138e-06  t[s]:   3249.41
	FillingsUpdate:  mu: -0.145912272  nElectrons: 447.000000  magneticMoment: [ Abs: 0.43471  Tot: +0.42220 ]
	SubspaceRotationAdjust: set factor to 1.99
ElecMinimize: Iter:  29  F: -1957.521057337595039  |grad|_K:  1.822e-07  alpha:  2.389e-03  linmin: -1.225e-04  t[s]:   3327.12
ElecMinimize: 	Wrong curvature in test step, increasing alphaT to 7.167616e-03.
	FillingsUpdate:  mu: -0.145912767  nElectrons: 447.000000  magneticMoment: [ Abs: 0.44130  Tot: +0.42861 ]
	SubspaceRotationAdjust: set factor to 2.51
ElecMinimize: Iter:  30  F: -1957.521057415279529  |grad|_K:  1.941e-07  alpha: -1.185e-01  linmin: -2.827e-04  t[s]:   3400.38
ElecMinimize: 	Wrong curvature in test step, increasing alphaT to 3.000000e+00.
	FillingsUpdate:  mu: -0.146249834  nElectrons: 447.000000  magneticMoment: [ Abs: 3.64736  Tot: +3.56950 ]
	SubspaceRotationAdjust: set factor to 1.76
ElecMinimize: Iter:  31  F: -1957.521300250934473  |grad|_K:  1.429e-06  alpha: -1.487e-01  linmin: -6.955e-04  t[s]:   3473.52
	FillingsUpdate:  mu: -0.146264469  nElectrons: 447.000000  magneticMoment: [ Abs: 4.06343  Tot: +3.98002 ]
	SubspaceRotationAdjust: set factor to 1.35
ElecMinimize: Iter:  32  F: -1957.521353858505336  |grad|_K:  1.435e-06  alpha:  2.414e-03  linmin: -1.085e-03  t[s]:   3552.40
ElecMinimize: 	Wrong curvature in test step, increasing alphaT to 7.242433e-03.
	FillingsUpdate:  mu: -0.146264554  nElectrons: 447.000000  magneticMoment: [ Abs: 4.48321  Tot: +4.39466 ]
	SubspaceRotationAdjust: set factor to 1.12
ElecMinimize: Iter:  33  F: -1957.521413397727429  |grad|_K:  1.473e-06  alpha: -4.270e-02  linmin: -1.108e-03  t[s]:   3625.51
	FillingsUpdate:  mu: -0.146244274  nElectrons: 447.000000  magneticMoment: [ Abs: 5.08641  Tot: +4.99112 ]
	SubspaceRotationAdjust: set factor to 0.976
ElecMinimize: Iter:  34  F: -1957.521507763570526  |grad|_K:  1.596e-06  alpha:  3.293e-03  linmin: -1.100e-03  t[s]:   3704.14
ElecMinimize: 	Wrong curvature in test step, increasing alphaT to 9.877679e-03.
	FillingsUpdate:  mu: -0.146195666  nElectrons: 447.000000  magneticMoment: [ Abs: 5.79268  Tot: +5.69016 ]
	SubspaceRotationAdjust: set factor to 0.874
ElecMinimize: Iter:  35  F: -1957.521629756502307  |grad|_K:  1.756e-06  alpha: -4.841e-02  linmin: -1.077e-03  t[s]:   3777.08
	FillingsUpdate:  mu: -0.146104655  nElectrons: 447.000000  magneticMoment: [ Abs: 6.64554  Tot: +6.53493 ]
	SubspaceRotationAdjust: set factor to 0.799
ElecMinimize: Iter:  36  F: -1957.521791220143314  |grad|_K:  1.958e-06  alpha:  3.298e-03  linmin: -1.036e-03  t[s]:   3855.70
ElecMinimize: 	Wrong curvature in test step, increasing alphaT to 9.893554e-03.
	FillingsUpdate:  mu: -0.145946124  nElectrons: 447.000000  magneticMoment: [ Abs: 7.69912  Tot: +7.57874 ]
	SubspaceRotationAdjust: set factor to 0.72
ElecMinimize: Iter:  37  F: -1957.522005259556863  |grad|_K:  2.252e-06  alpha: -1.065e-01  linmin: -9.101e-04  t[s]:   3928.65
ElecMinimize: 	Step increased F by 2.751893e-04, reducing alpha to 1.849690e-04.
	FillingsUpdate:  mu: -0.145932248  nElectrons: 447.000000  magneticMoment: [ Abs: 7.77701  Tot: +7.65588 ]
	SubspaceRotationAdjust: set factor to 0.663
ElecMinimize: Iter:  38  F: -1957.522020563524620  |grad|_K:  2.242e-06  alpha:  1.850e-04  linmin: -8.847e-04  t[s]:   4058.01
ElecMinimize: 	Predicted alpha/alphaT>3.000000, increasing alphaT to 5.549070e-04.
ElecMinimize: 	Step increased F by 7.192763e-05, reducing alpha to 1.401662e-04.
	FillingsUpdate:  mu: -0.145921342  nElectrons: 447.000000  magneticMoment: [ Abs: 7.83555  Tot: +7.71385 ]
	SubspaceRotationAdjust: set factor to 0.617
ElecMinimize: Iter:  39  F: -1957.522031722683778  |grad|_K:  2.245e-06  alpha:  1.402e-04  linmin: -8.440e-04  t[s]:   4209.72
ElecMinimize: 	Predicted alpha/alphaT>3.000000, increasing alphaT to 4.204986e-04.
ElecMinimize: 	Step increased F by 1.438925e-05, reducing alpha to 1.084577e-04.
	FillingsUpdate:  mu: -0.145912555  nElectrons: 447.000000  magneticMoment: [ Abs: 7.88100  Tot: +7.75884 ]
	SubspaceRotationAdjust: set factor to 0.576
ElecMinimize: Iter:  40  F: -1957.522040036469207  |grad|_K:  2.251e-06  alpha:  1.085e-04  linmin: -7.993e-04  t[s]:   4361.60
ElecMinimize: 	Predicted alpha/alphaT>3.000000, increasing alphaT to 3.253730e-04.
	FillingsUpdate:  mu: -0.145840018  nElectrons: 447.000000  magneticMoment: [ Abs: 8.24469  Tot: +8.11872 ]
	SubspaceRotationAdjust: set factor to 0.371
ElecMinimize: Iter:  41  F: -1957.522043419363854  |grad|_K:  3.371e-06  alpha:  8.644e-04  linmin:  1.523e-03  t[s]:   4462.76
ElecMinimize: 	Bad step direction: g.d > 0.
ElecMinimize: 	Undoing step.
ElecMinimize: 	Step failed: resetting search direction.
	FillingsUpdate:  mu: -0.145840018  nElectrons: 447.000000  magneticMoment: [ Abs: 8.24469  Tot: +8.11872 ]
	SubspaceRotationAdjust: set factor to 0.268
ElecMinimize: Iter:  42  F: -1957.522043419359989  |grad|_K:  2.868e-06  alpha:  0.000e+00
ElecMinimize: 	Predicted alpha/alphaT>3.000000, increasing alphaT to 2.593207e-03.
ElecMinimize: 	Predicted alpha/alphaT>3.000000, increasing alphaT to 7.779622e-03.
ElecMinimize: 	Predicted alpha/alphaT>3.000000, increasing alphaT to 2.333887e-02.
	FillingsUpdate:  mu: -0.145703287  nElectrons: 447.000000  magneticMoment: [ Abs: 8.27559  Tot: +8.14462 ]
	SubspaceRotationAdjust: set factor to 0.358
ElecMinimize: Iter:  43  F: -1957.522283793365659  |grad|_K:  1.850e-06  alpha:  8.730e-02  linmin: -2.045e-03  t[s]:   4642.08
ElecMinimize: 	Predicted alpha/alphaT>3.000000, increasing alphaT to 2.618851e-01.
	FillingsUpdate:  mu: -0.144774211  nElectrons: 447.000000  magneticMoment: [ Abs: 8.51613  Tot: +8.34261 ]
	SubspaceRotationAdjust: set factor to 0.455
ElecMinimize: Iter:  44  F: -1957.523204531704550  |grad|_K:  1.411e-06  alpha:  5.901e-01  linmin: -7.640e-04  t[s]:   4743.96
	FillingsUpdate:  mu: -0.144879347  nElectrons: 447.000000  magneticMoment: [ Abs: 9.00877  Tot: +8.76063 ]
	SubspaceRotationAdjust: set factor to 0.559
ElecMinimize: Iter:  45  F: -1957.523820916044997  |grad|_K:  1.620e-06  alpha:  8.263e-01  linmin: -1.911e-05  t[s]:   4822.58
	FillingsUpdate:  mu: -0.144667019  nElectrons: 447.000000  magneticMoment: [ Abs: 9.76766  Tot: +9.42808 ]
	SubspaceRotationAdjust: set factor to 0.681
ElecMinimize: Iter:  46  F: -1957.524218059560781  |grad|_K:  1.514e-06  alpha:  6.000e-01  linmin: -2.801e-06  t[s]:   4901.11
	FillingsUpdate:  mu: -0.143935902  nElectrons: 447.000000  magneticMoment: [ Abs: 11.88269  Tot: +11.36569 ]
	SubspaceRotationAdjust: set factor to 0.798
ElecMinimize: Iter:  47  F: -1957.524905403606681  |grad|_K:  2.588e-06  alpha:  1.232e+00  linmin:  1.417e-05  t[s]:   4979.39
	FillingsUpdate:  mu: -0.143876497  nElectrons: 447.000000  magneticMoment: [ Abs: 14.06103  Tot: +13.40201 ]
	SubspaceRotationAdjust: set factor to 0.852
ElecMinimize: Iter:  48  F: -1957.525726938028583  |grad|_K:  2.817e-06  alpha:  3.818e-01  linmin: -2.238e-04  t[s]:   5058.19
	FillingsUpdate:  mu: -0.143149750  nElectrons: 447.000000  magneticMoment: [ Abs: 18.12573  Tot: +17.25988 ]
	SubspaceRotationAdjust: set factor to 0.941
ElecMinimize: Iter:  49  F: -1957.527012153000442  |grad|_K:  4.390e-06  alpha:  5.505e-01  linmin:  2.303e-04  t[s]:   5137.00
	FillingsUpdate:  mu: -0.142147781  nElectrons: 447.000000  magneticMoment: [ Abs: 19.92716  Tot: +18.97874 ]
	SubspaceRotationAdjust: set factor to 0.969
ElecMinimize: Iter:  50  F: -1957.527466921254018  |grad|_K:  4.977e-06  alpha:  1.020e-01  linmin: -8.473e-05  t[s]:   5215.49
	FillingsUpdate:  mu: -0.139275953  nElectrons: 447.000000  magneticMoment: [ Abs: 23.12331  Tot: +22.03532 ]
	SubspaceRotationAdjust: set factor to 0.89
ElecMinimize: Iter:  51  F: -1957.528479409788360  |grad|_K:  4.795e-06  alpha:  1.465e-01  linmin:  5.219e-05  t[s]:   5293.99
	FillingsUpdate:  mu: -0.137703088  nElectrons: 447.000000  magneticMoment: [ Abs: 24.64060  Tot: +23.48786 ]
	SubspaceRotationAdjust: set factor to 0.868
ElecMinimize: Iter:  52  F: -1957.528884922586940  |grad|_K:  4.316e-06  alpha:  8.039e-02  linmin:  3.715e-06  t[s]:   5372.11
	FillingsUpdate:  mu: -0.136542215  nElectrons: 447.000000  magneticMoment: [ Abs: 25.86236  Tot: +24.65836 ]
	SubspaceRotationAdjust: set factor to 0.942
ElecMinimize: Iter:  53  F: -1957.529269869994323  |grad|_K:  3.919e-06  alpha:  8.470e-02  linmin: -1.066e-05  t[s]:   5451.59
	FillingsUpdate:  mu: -0.135880134  nElectrons: 447.000000  magneticMoment: [ Abs: 26.91169  Tot: +25.66285 ]
	SubspaceRotationAdjust: set factor to 1.13
ElecMinimize: Iter:  54  F: -1957.529639562167404  |grad|_K:  3.640e-06  alpha:  9.499e-02  linmin: -1.410e-05  t[s]:   5530.27
	FillingsUpdate:  mu: -0.135800551  nElectrons: 447.000000  magneticMoment: [ Abs: 27.76883  Tot: +26.48118 ]
	SubspaceRotationAdjust: set factor to 1.36
ElecMinimize: Iter:  55  F: -1957.529976996742107  |grad|_K:  3.363e-06  alpha:  9.980e-02  linmin: -7.861e-06  t[s]:   5608.62
	FillingsUpdate:  mu: -0.136123621  nElectrons: 447.000000  magneticMoment: [ Abs: 28.35528  Tot: +27.03892 ]
	SubspaceRotationAdjust: set factor to 1.43
ElecMinimize: Iter:  56  F: -1957.530245000997411  |grad|_K:  3.171e-06  alpha:  9.449e-02  linmin: -2.924e-06  t[s]:   5686.85
	FillingsUpdate:  mu: -0.136483382  nElectrons: 447.000000  magneticMoment: [ Abs: 28.73103  Tot: +27.39403 ]
	SubspaceRotationAdjust: set factor to 1.24
ElecMinimize: Iter:  57  F: -1957.530472078723960  |grad|_K:  3.099e-06  alpha:  9.125e-02  linmin: -1.447e-06  t[s]:   5765.24
	FillingsUpdate:  mu: -0.136603875  nElectrons: 447.000000  magneticMoment: [ Abs: 28.95734  Tot: +27.60384 ]
	SubspaceRotationAdjust: set factor to 0.98
ElecMinimize: Iter:  58  F: -1957.530694257310415  |grad|_K:  2.995e-06  alpha:  9.392e-02  linmin:  3.809e-07  t[s]:   5844.22
	FillingsUpdate:  mu: -0.136383890  nElectrons: 447.000000  magneticMoment: [ Abs: 29.04841  Tot: +27.68042 ]
	SubspaceRotationAdjust: set factor to 0.766
ElecMinimize: Iter:  59  F: -1957.530918061012244  |grad|_K:  2.816e-06  alpha:  1.019e-01  linmin:  1.365e-06  t[s]:   5922.63
	FillingsUpdate:  mu: -0.135944335  nElectrons: 447.000000  magneticMoment: [ Abs: 29.01307  Tot: +27.63146 ]
	SubspaceRotationAdjust: set factor to 0.626
ElecMinimize: Iter:  60  F: -1957.531145002679523  |grad|_K:  2.658e-06  alpha:  1.173e-01  linmin:  1.240e-06  t[s]:   6000.53
	FillingsUpdate:  mu: -0.135536540  nElectrons: 447.000000  magneticMoment: [ Abs: 28.85884  Tot: +27.46408 ]
	SubspaceRotationAdjust: set factor to 0.544
ElecMinimize: Iter:  61  F: -1957.531379727228796  |grad|_K:  2.564e-06  alpha:  1.361e-01  linmin:  1.418e-06  t[s]:   6078.02
	FillingsUpdate:  mu: -0.135431048  nElectrons: 447.000000  magneticMoment: [ Abs: 28.60092  Tot: +27.19499 ]
	SubspaceRotationAdjust: set factor to 0.493
ElecMinimize: Iter:  62  F: -1957.531614759337799  |grad|_K:  2.448e-06  alpha:  1.464e-01  linmin:  1.505e-06  t[s]:   6156.53
	FillingsUpdate:  mu: -0.135739106  nElectrons: 447.000000  magneticMoment: [ Abs: 28.27520  Tot: +26.86263 ]
	SubspaceRotationAdjust: set factor to 0.48
ElecMinimize: Iter:  63  F: -1957.531831601917702  |grad|_K:  2.282e-06  alpha:  1.480e-01  linmin:  8.484e-07  t[s]:   6235.10
	FillingsUpdate:  mu: -0.136364210  nElectrons: 447.000000  magneticMoment: [ Abs: 27.90141  Tot: +26.48833 ]
	SubspaceRotationAdjust: set factor to 0.565
ElecMinimize: Iter:  64  F: -1957.532029491995218  |grad|_K:  2.206e-06  alpha:  1.550e-01  linmin: -3.617e-07  t[s]:   6313.82
	FillingsUpdate:  mu: -0.137144860  nElectrons: 447.000000  magneticMoment: [ Abs: 27.46337  Tot: +26.05689 ]
	SubspaceRotationAdjust: set factor to 0.777
ElecMinimize: Iter:  65  F: -1957.532224677371914  |grad|_K:  2.253e-06  alpha:  1.632e-01  linmin: -1.060e-06  t[s]:   6391.73
	FillingsUpdate:  mu: -0.137845936  nElectrons: 447.000000  magneticMoment: [ Abs: 26.97801  Tot: +25.58514 ]
	SubspaceRotationAdjust: set factor to 1.02
ElecMinimize: Iter:  66  F: -1957.532413253377172  |grad|_K:  2.262e-06  alpha:  1.511e-01  linmin: -1.084e-07  t[s]:   6469.93
	FillingsUpdate:  mu: -0.138244257  nElectrons: 447.000000  magneticMoment: [ Abs: 26.50617  Tot: +25.13184 ]
	SubspaceRotationAdjust: set factor to 1.38
ElecMinimize: Iter:  67  F: -1957.532575984932919  |grad|_K:  2.187e-06  alpha:  1.295e-01  linmin:  8.057e-07  t[s]:   6548.78
	FillingsUpdate:  mu: -0.138338188  nElectrons: 447.000000  magneticMoment: [ Abs: 26.07309  Tot: +24.72137 ]
	SubspaceRotationAdjust: set factor to 1.83
ElecMinimize: Iter:  68  F: -1957.532711232070142  |grad|_K:  2.167e-06  alpha:  1.153e-01  linmin:  1.416e-06  t[s]:   6627.20
	FillingsUpdate:  mu: -0.138296855  nElectrons: 447.000000  magneticMoment: [ Abs: 25.67415  Tot: +24.34983 ]
	SubspaceRotationAdjust: set factor to 2.37
ElecMinimize: Iter:  69  F: -1957.532827173737360  |grad|_K:  2.218e-06  alpha:  1.008e-01  linmin:  1.643e-06  t[s]:   6705.70
	FillingsUpdate:  mu: -0.138333262  nElectrons: 447.000000  magneticMoment: [ Abs: 25.31204  Tot: +24.02057 ]
	SubspaceRotationAdjust: set factor to 2.7
ElecMinimize: Iter:  70  F: -1957.532929089547906  |grad|_K:  2.322e-06  alpha:  8.453e-02  linmin:  1.723e-06  t[s]:   6784.41
	FillingsUpdate:  mu: -0.138557456  nElectrons: 447.000000  magneticMoment: [ Abs: 24.99868  Tot: +23.74473 ]
	SubspaceRotationAdjust: set factor to 2.49
ElecMinimize: Iter:  71  F: -1957.533018678923554  |grad|_K:  2.396e-06  alpha:  6.770e-02  linmin:  1.667e-06  t[s]:   6861.95
	FillingsUpdate:  mu: -0.138903150  nElectrons: 447.000000  magneticMoment: [ Abs: 24.73329  Tot: +23.52065 ]
	SubspaceRotationAdjust: set factor to 2.03
ElecMinimize: Iter:  72  F: -1957.533099046854659  |grad|_K:  2.357e-06  alpha:  5.719e-02  linmin:  2.482e-06  t[s]:   6940.31
	FillingsUpdate:  mu: -0.139231295  nElectrons: 447.000000  magneticMoment: [ Abs: 24.50360  Tot: +23.33616 ]
	SubspaceRotationAdjust: set factor to 1.59
ElecMinimize: Iter:  73  F: -1957.533174962002477  |grad|_K:  2.269e-06  alpha:  5.635e-02  linmin:  3.621e-06  t[s]:   7018.84
	FillingsUpdate:  mu: -0.139433896  nElectrons: 447.000000  magneticMoment: [ Abs: 24.29705  Tot: +23.17916 ]
	SubspaceRotationAdjust: set factor to 1.29
ElecMinimize: Iter:  74  F: -1957.533251778629619  |grad|_K:  2.179e-06  alpha:  6.174e-02  linmin:  3.127e-06  t[s]:   7097.02
	FillingsUpdate:  mu: -0.139456720  nElectrons: 447.000000  magneticMoment: [ Abs: 24.10848  Tot: +23.04394 ]
	SubspaceRotationAdjust: set factor to 1.11
ElecMinimize: Iter:  75  F: -1957.533332487764937  |grad|_K:  2.107e-06  alpha:  6.999e-02  linmin:  2.130e-06  t[s]:   7175.41
	FillingsUpdate:  mu: -0.139313972  nElectrons: 447.000000  magneticMoment: [ Abs: 23.94359  Tot: +22.93287 ]
	SubspaceRotationAdjust: set factor to 0.983
ElecMinimize: Iter:  76  F: -1957.533414853385011  |grad|_K:  2.017e-06  alpha:  7.607e-02  linmin:  2.573e-07  t[s]:   7254.08
	FillingsUpdate:  mu: -0.139090920  nElectrons: 447.000000  magneticMoment: [ Abs: 23.81131  Tot: +22.84993 ]
	SubspaceRotationAdjust: set factor to 0.833
ElecMinimize: Iter:  77  F: -1957.533494436785759  |grad|_K:  1.868e-06  alpha:  7.974e-02  linmin: -2.077e-06  t[s]:   7332.30
	FillingsUpdate:  mu: -0.138899396  nElectrons: 447.000000  magneticMoment: [ Abs: 23.71554  Tot: +22.79554 ]
	SubspaceRotationAdjust: set factor to 0.692
ElecMinimize: Iter:  78  F: -1957.533568287815342  |grad|_K:  1.681e-06  alpha:  8.570e-02  linmin: -3.870e-06  t[s]:   7410.34
	FillingsUpdate:  mu: -0.138817557  nElectrons: 447.000000  magneticMoment: [ Abs: 23.65312  Tot: +22.76581 ]
	SubspaceRotationAdjust: set factor to 0.629
ElecMinimize: Iter:  79  F: -1957.533637420067635  |grad|_K:  1.538e-06  alpha:  9.855e-02  linmin: -4.416e-06  t[s]:   7489.05
	FillingsUpdate:  mu: -0.138869528  nElectrons: 447.000000  magneticMoment: [ Abs: 23.61883  Tot: +22.75641 ]
	SubspaceRotationAdjust: set factor to 0.67
ElecMinimize: Iter:  80  F: -1957.533706128461063  |grad|_K:  1.473e-06  alpha:  1.167e-01  linmin: -3.880e-06  t[s]:   7567.86
	FillingsUpdate:  mu: -0.139023771  nElectrons: 447.000000  magneticMoment: [ Abs: 23.61278  Tot: +22.76620 ]
	SubspaceRotationAdjust: set factor to 0.743
ElecMinimize: Iter:  81  F: -1957.533773473402789  |grad|_K:  1.415e-06  alpha:  1.247e-01  linmin: -2.551e-06  t[s]:   7645.14
	FillingsUpdate:  mu: -0.139177769  nElectrons: 447.000000  magneticMoment: [ Abs: 23.63524  Tot: +22.79340 ]
	SubspaceRotationAdjust: set factor to 0.776
ElecMinimize: Iter:  82  F: -1957.533832442784160  |grad|_K:  1.329e-06  alpha:  1.190e-01  linmin: -1.304e-06  t[s]:   7724.09
	FillingsUpdate:  mu: -0.139233203  nElectrons: 447.000000  magneticMoment: [ Abs: 23.68341  Tot: +22.83601 ]
	SubspaceRotationAdjust: set factor to 0.82
ElecMinimize: Iter:  83  F: -1957.533882936049167  |grad|_K:  1.265e-06  alpha:  1.160e-01  linmin: -5.694e-07  t[s]:   7802.28
	FillingsUpdate:  mu: -0.139149624  nElectrons: 447.000000  magneticMoment: [ Abs: 23.75774  Tot: +22.89526 ]
	SubspaceRotationAdjust: set factor to 0.948
ElecMinimize: Iter:  84  F: -1957.533929758863451  |grad|_K:  1.254e-06  alpha:  1.191e-01  linmin:  5.113e-07  t[s]:   7881.49
	FillingsUpdate:  mu: -0.138946279  nElectrons: 447.000000  magneticMoment: [ Abs: 23.85757  Tot: +22.97136 ]
	SubspaceRotationAdjust: set factor to 1.12
ElecMinimize: Iter:  85  F: -1957.533974667539951  |grad|_K:  1.266e-06  alpha:  1.165e-01  linmin:  1.757e-06  t[s]:   7960.33
	FillingsUpdate:  mu: -0.138709365  nElectrons: 447.000000  magneticMoment: [ Abs: 23.97537  Tot: +23.05948 ]
	SubspaceRotationAdjust: set factor to 1.21
ElecMinimize: Iter:  86  F: -1957.534015810470009  |grad|_K:  1.271e-06  alpha:  1.048e-01  linmin:  2.265e-06  t[s]:   8038.22
	FillingsUpdate:  mu: -0.138536126  nElectrons: 447.000000  magneticMoment: [ Abs: 24.10445  Tot: +23.15581 ]
	SubspaceRotationAdjust: set factor to 1.2
ElecMinimize: Iter:  87  F: -1957.534052630516726  |grad|_K:  1.264e-06  alpha:  9.326e-02  linmin:  2.604e-06  t[s]:   8117.11
	FillingsUpdate:  mu: -0.138471292  nElectrons: 447.000000  magneticMoment: [ Abs: 24.24225  Tot: +23.25932 ]
	SubspaceRotationAdjust: set factor to 1.18
ElecMinimize: Iter:  88  F: -1957.534086134822928  |grad|_K:  1.258e-06  alpha:  8.600e-02  linmin:  2.938e-06  t[s]:   8195.27
	FillingsUpdate:  mu: -0.138497534  nElectrons: 447.000000  magneticMoment: [ Abs: 24.38659  Tot: +23.36909 ]
	SubspaceRotationAdjust: set factor to 1.16
ElecMinimize: Iter:  89  F: -1957.534117246721507  |grad|_K:  1.265e-06  alpha:  8.085e-02  linmin:  2.931e-06  t[s]:   8274.00
	FillingsUpdate:  mu: -0.138560174  nElectrons: 447.000000  magneticMoment: [ Abs: 24.53403  Tot: +23.48301 ]
	SubspaceRotationAdjust: set factor to 1.11
ElecMinimize: Iter:  90  F: -1957.534146352769540  |grad|_K:  1.275e-06  alpha:  7.493e-02  linmin:  2.728e-06  t[s]:   8351.70
	FillingsUpdate:  mu: -0.138600614  nElectrons: 447.000000  magneticMoment: [ Abs: 24.68019  Tot: +23.59801 ]
	SubspaceRotationAdjust: set factor to 1.01
ElecMinimize: Iter:  91  F: -1957.534173416903741  |grad|_K:  1.264e-06  alpha:  6.866e-02  linmin:  2.608e-06  t[s]:   8429.37
	FillingsUpdate:  mu: -0.138582559  nElectrons: 447.000000  magneticMoment: [ Abs: 24.82098  Tot: +23.71123 ]
	SubspaceRotationAdjust: set factor to 0.881
ElecMinimize: Iter:  92  F: -1957.534198363948462  |grad|_K:  1.220e-06  alpha:  6.442e-02  linmin:  2.660e-06  t[s]:   8507.85
	FillingsUpdate:  mu: -0.138499369  nElectrons: 447.000000  magneticMoment: [ Abs: 24.95426  Tot: +23.82095 ]
	SubspaceRotationAdjust: set factor to 0.755
ElecMinimize: Iter:  93  F: -1957.534221339911255  |grad|_K:  1.153e-06  alpha:  6.363e-02  linmin:  2.662e-06  t[s]:   8586.36
	FillingsUpdate:  mu: -0.138365887  nElectrons: 447.000000  magneticMoment: [ Abs: 25.07958  Tot: +23.92668 ]
	SubspaceRotationAdjust: set factor to 0.657
ElecMinimize: Iter:  94  F: -1957.534242713714775  |grad|_K:  1.083e-06  alpha:  6.613e-02  linmin:  2.387e-06  t[s]:   8665.38
	FillingsUpdate:  mu: -0.138207485  nElectrons: 447.000000  magneticMoment: [ Abs: 25.19742  Tot: +24.02867 ]
	SubspaceRotationAdjust: set factor to 0.595
ElecMinimize: Iter:  95  F: -1957.534262913619841  |grad|_K:  1.027e-06  alpha:  7.063e-02  linmin:  1.736e-06  t[s]:   8742.88
	FillingsUpdate:  mu: -0.138052340  nElectrons: 447.000000  magneticMoment: [ Abs: 25.30833  Tot: +24.12724 ]
	SubspaceRotationAdjust: set factor to 0.562
ElecMinimize: Iter:  96  F: -1957.534282295845742  |grad|_K:  9.860e-07  alpha:  7.524e-02  linmin:  5.835e-07  t[s]:   8820.90
	FillingsUpdate:  mu: -0.137926508  nElectrons: 447.000000  magneticMoment: [ Abs: 25.41214  Tot: +24.22205 ]
	SubspaceRotationAdjust: set factor to 0.542
ElecMinimize: Iter:  97  F: -1957.534301046483733  |grad|_K:  9.533e-07  alpha:  7.867e-02  linmin: -8.791e-07  t[s]:   8898.77
	FillingsUpdate:  mu: -0.137849147  nElectrons: 447.000000  magneticMoment: [ Abs: 25.50789  Tot: +24.31208 ]
	SubspaceRotationAdjust: set factor to 0.526
ElecMinimize: Iter:  98  F: -1957.534319173565564  |grad|_K:  9.203e-07  alpha:  8.112e-02  linmin: -1.955e-06  t[s]:   8976.78
	FillingsUpdate:  mu: -0.137827273  nElectrons: 447.000000  magneticMoment: [ Abs: 25.59457  Tot: +24.39610 ]
	SubspaceRotationAdjust: set factor to 0.513
ElecMinimize: Iter:  99  F: -1957.534336627067432  |grad|_K:  8.858e-07  alpha:  8.362e-02  linmin: -2.332e-06  t[s]:   9054.26
	FillingsUpdate:  mu: -0.137853214  nElectrons: 447.000000  magneticMoment: [ Abs: 25.67169  Tot: +24.47336 ]
	SubspaceRotationAdjust: set factor to 0.509
ElecMinimize: Iter: 100  F: -1957.534353423300217  |grad|_K:  8.539e-07  alpha:  8.674e-02  linmin: -2.252e-06  t[s]:   9132.98
	FillingsUpdate:  mu: -0.137906936  nElectrons: 447.000000  magneticMoment: [ Abs: 25.73921  Tot: +24.54341 ]
	SubspaceRotationAdjust: set factor to 0.515
ElecMinimize: Iter: 101  F: -1957.534369630243191  |grad|_K:  8.273e-07  alpha:  9.001e-02  linmin: -1.987e-06  t[s]:   9211.58
	FillingsUpdate:  mu: -0.137961846  nElectrons: 447.000000  magneticMoment: [ Abs: 25.79682  Tot: +24.60555 ]
	SubspaceRotationAdjust: set factor to 0.528
ElecMinimize: Iter: 102  F: -1957.534385243792030  |grad|_K:  8.036e-07  alpha:  9.237e-02  linmin: -1.686e-06  t[s]:   9290.22
	FillingsUpdate:  mu: -0.137993222  nElectrons: 447.000000  magneticMoment: [ Abs: 25.84379  Tot: +24.65851 ]
	SubspaceRotationAdjust: set factor to 0.543
ElecMinimize: Iter: 103  F: -1957.534400108286036  |grad|_K:  7.777e-07  alpha:  9.326e-02  linmin: -1.406e-06  t[s]:   9369.25
	FillingsUpdate:  mu: -0.137987685  nElectrons: 447.000000  magneticMoment: [ Abs: 25.87943  Tot: +24.70099 ]
	SubspaceRotationAdjust: set factor to 0.558
ElecMinimize: Iter: 104  F: -1957.534413999577964  |grad|_K:  7.479e-07  alpha:  9.314e-02  linmin: -1.151e-06  t[s]:   9447.87
	FillingsUpdate:  mu: -0.137948211  nElectrons: 447.000000  magneticMoment: [ Abs: 25.90359  Tot: +24.73231 ]
	SubspaceRotationAdjust: set factor to 0.578
ElecMinimize: Iter: 105  F: -1957.534426816385121  |grad|_K:  7.190e-07  alpha:  9.299e-02  linmin: -9.080e-07  t[s]:   9526.28
	FillingsUpdate:  mu: -0.137890698  nElectrons: 447.000000  magneticMoment: [ Abs: 25.91676  Tot: +24.75260 ]
	SubspaceRotationAdjust: set factor to 0.61
ElecMinimize: Iter: 106  F: -1957.534438689794115  |grad|_K:  6.982e-07  alpha:  9.330e-02  linmin: -6.578e-07  t[s]:   9604.33
	FillingsUpdate:  mu: -0.137836024  nElectrons: 447.000000  magneticMoment: [ Abs: 25.91945  Tot: +24.76216 ]
	SubspaceRotationAdjust: set factor to 0.656
ElecMinimize: Iter: 107  F: -1957.534449873352060  |grad|_K:  6.878e-07  alpha:  9.329e-02  linmin: -3.610e-07  t[s]:   9682.96
	FillingsUpdate:  mu: -0.137802893  nElectrons: 447.000000  magneticMoment: [ Abs: 25.91185  Tot: +24.76094 ]
	SubspaceRotationAdjust: set factor to 0.707
ElecMinimize: Iter: 108  F: -1957.534460513906424  |grad|_K:  6.826e-07  alpha:  9.156e-02  linmin:  1.266e-08  t[s]:   9762.06
	FillingsUpdate:  mu: -0.137801239  nElectrons: 447.000000  magneticMoment: [ Abs: 25.89420  Tot: +24.74891 ]
	SubspaceRotationAdjust: set factor to 0.746
ElecMinimize: Iter: 109  F: -1957.534470568246661  |grad|_K:  6.759e-07  alpha:  8.792e-02  linmin:  4.917e-07  t[s]:   9839.81
	FillingsUpdate:  mu: -0.137828063  nElectrons: 447.000000  magneticMoment: [ Abs: 25.86709  Tot: +24.72640 ]
	SubspaceRotationAdjust: set factor to 0.771
ElecMinimize: Iter: 110  F: -1957.534479976672856  |grad|_K:  6.675e-07  alpha:  8.400e-02  linmin:  1.004e-06  t[s]:   9919.01
	FillingsUpdate:  mu: -0.137870295  nElectrons: 447.000000  magneticMoment: [ Abs: 25.83096  Tot: +24.69387 ]
	SubspaceRotationAdjust: set factor to 0.79
ElecMinimize: Iter: 111  F: -1957.534488853246785  |grad|_K:  6.637e-07  alpha:  8.134e-02  linmin:  1.405e-06  t[s]:   9997.67
	FillingsUpdate:  mu: -0.137911871  nElectrons: 447.000000  magneticMoment: [ Abs: 25.78579  Tot: +24.65139 ]
	SubspaceRotationAdjust: set factor to 0.812
ElecMinimize: Iter: 112  F: -1957.534497438246262  |grad|_K:  6.690e-07  alpha:  7.965e-02  linmin:  1.603e-06  t[s]:  10075.54
	FillingsUpdate:  mu: -0.137939636  nElectrons: 447.000000  magneticMoment: [ Abs: 25.73176  Tot: +24.59928 ]
	SubspaceRotationAdjust: set factor to 0.827
ElecMinimize: Iter: 113  F: -1957.534505887769910  |grad|_K:  6.793e-07  alpha:  7.725e-02  linmin:  1.663e-06  t[s]:  10153.80
	FillingsUpdate:  mu: -0.137948139  nElectrons: 447.000000  magneticMoment: [ Abs: 25.67039  Tot: +24.53918 ]
	SubspaceRotationAdjust: set factor to 0.815
ElecMinimize: Iter: 114  F: -1957.534514136794996  |grad|_K:  6.843e-07  alpha:  7.321e-02  linmin:  1.656e-06  t[s]:  10232.02
	FillingsUpdate:  mu: -0.137942264  nElectrons: 447.000000  magneticMoment: [ Abs: 25.60445  Tot: +24.47406 ]
	SubspaceRotationAdjust: set factor to 0.762
ElecMinimize: Iter: 115  F: -1957.534521997057027  |grad|_K:  6.760e-07  alpha:  6.878e-02  linmin:  1.656e-06  t[s]:  10308.91
	FillingsUpdate:  mu: -0.137934118  nElectrons: 447.000000  magneticMoment: [ Abs: 25.53645  Tot: +24.40665 ]
	SubspaceRotationAdjust: set factor to 0.683
ElecMinimize: Iter: 116  F: -1957.534529355703626  |grad|_K:  6.545e-07  alpha:  6.603e-02  linmin:  1.681e-06  t[s]:  10387.74
	FillingsUpdate:  mu: -0.137936804  nElectrons: 447.000000  magneticMoment: [ Abs: 25.46763  Tot: +24.33841 ]
	SubspaceRotationAdjust: set factor to 0.605
ElecMinimize: Iter: 117  F: -1957.534536254863042  |grad|_K:  6.274e-07  alpha:  6.607e-02  linmin:  1.646e-06  t[s]:  10466.49
	FillingsUpdate:  mu: -0.137960467  nElectrons: 447.000000  magneticMoment: [ Abs: 25.39800  Tot: +24.26955 ]
	SubspaceRotationAdjust: set factor to 0.551
ElecMinimize: Iter: 118  F: -1957.534542843077134  |grad|_K:  6.042e-07  alpha:  6.867e-02  linmin:  1.440e-06  t[s]:  10545.24
	FillingsUpdate:  mu: -0.138011008  nElectrons: 447.000000  magneticMoment: [ Abs: 25.32721  Tot: +24.19985 ]
	SubspaceRotationAdjust: set factor to 0.525
ElecMinimize: Iter: 119  F: -1957.534549272040522  |grad|_K:  5.894e-07  alpha:  7.219e-02  linmin:  1.144e-06  t[s]:  10622.87
	FillingsUpdate:  mu: -0.138088580  nElectrons: 447.000000  magneticMoment: [ Abs: 25.25588  Tot: +24.13003 ]
	SubspaceRotationAdjust: set factor to 0.516
ElecMinimize: Iter: 120  F: -1957.534555577395849  |grad|_K:  5.789e-07  alpha:  7.429e-02  linmin:  8.433e-07  t[s]:  10701.90
	FillingsUpdate:  mu: -0.138185815  nElectrons: 447.000000  magneticMoment: [ Abs: 25.18598  Tot: +24.06212 ]
	SubspaceRotationAdjust: set factor to 0.506
ElecMinimize: Iter: 121  F: -1957.534561657949325  |grad|_K:  5.656e-07  alpha:  7.415e-02  linmin:  5.749e-07  t[s]:  10779.98
	FillingsUpdate:  mu: -0.138289753  nElectrons: 447.000000  magneticMoment: [ Abs: 25.11946  Tot: +23.99810 ]
	SubspaceRotationAdjust: set factor to 0.487
ElecMinimize: Iter: 122  F: -1957.534567405530197  |grad|_K:  5.479e-07  alpha:  7.334e-02  linmin:  2.918e-07  t[s]:  10858.70
	FillingsUpdate:  mu: -0.138387210  nElectrons: 447.000000  magneticMoment: [ Abs: 25.05685  Tot: +23.93848 ]
	SubspaceRotationAdjust: set factor to 0.468
ElecMinimize: Iter: 123  F: -1957.534572831527157  |grad|_K:  5.301e-07  alpha:  7.371e-02  linmin: -9.488e-08  t[s]:  10936.79
	FillingsUpdate:  mu: -0.138468126  nElectrons: 447.000000  magneticMoment: [ Abs: 24.99742  Tot: +23.88260 ]
	SubspaceRotationAdjust: set factor to 0.457
ElecMinimize: Iter: 124  F: -1957.534578047984041  |grad|_K:  5.166e-07  alpha:  7.562e-02  linmin: -6.050e-07  t[s]:  11015.74
	FillingsUpdate:  mu: -0.138525529  nElectrons: 447.000000  magneticMoment: [ Abs: 24.94065  Tot: +23.82992 ]
	SubspaceRotationAdjust: set factor to 0.455
ElecMinimize: Iter: 125  F: -1957.534583146213890  |grad|_K:  5.059e-07  alpha:  7.773e-02  linmin: -1.092e-06  t[s]:  11092.52
	FillingsUpdate:  mu: -0.138555759  nElectrons: 447.000000  magneticMoment: [ Abs: 24.88738  Tot: +23.78118 ]
	SubspaceRotationAdjust: set factor to 0.451
ElecMinimize: Iter: 126  F: -1957.534588093792763  |grad|_K:  4.920e-07  alpha:  7.857e-02  linmin: -1.348e-06  t[s]:  11171.10
	FillingsUpdate:  mu: -0.138560604  nElectrons: 447.000000  magneticMoment: [ Abs: 24.83929  Tot: +23.73788 ]
	SubspaceRotationAdjust: set factor to 0.439
ElecMinimize: Iter: 127  F: -1957.534592767799722  |grad|_K:  4.714e-07  alpha:  7.846e-02  linmin: -1.414e-06  t[s]:  11249.23
	FillingsUpdate:  mu: -0.138547652  nElectrons: 447.000000  magneticMoment: [ Abs: 24.79736  Tot: +23.70079 ]
	SubspaceRotationAdjust: set factor to 0.424
ElecMinimize: Iter: 128  F: -1957.534597102692032  |grad|_K:  4.484e-07  alpha:  7.924e-02  linmin: -1.393e-06  t[s]:  11327.82
	FillingsUpdate:  mu: -0.138526886  nElectrons: 447.000000  magneticMoment: [ Abs: 24.76115  Tot: +23.66944 ]
	SubspaceRotationAdjust: set factor to 0.418
ElecMinimize: Iter: 129  F: -1957.534601162766648  |grad|_K:  4.304e-07  alpha:  8.199e-02  linmin: -1.298e-06  t[s]:  11406.22
	FillingsUpdate:  mu: -0.138507175  nElectrons: 447.000000  magneticMoment: [ Abs: 24.72979  Tot: +23.64294 ]
	SubspaceRotationAdjust: set factor to 0.425
ElecMinimize: Iter: 130  F: -1957.534605064327934  |grad|_K:  4.194e-07  alpha:  8.554e-02  linmin: -1.156e-06  t[s]:  11484.69
	FillingsUpdate:  mu: -0.138494599  nElectrons: 447.000000  magneticMoment: [ Abs: 24.70312  Tot: +23.62108 ]
	SubspaceRotationAdjust: set factor to 0.435
ElecMinimize: Iter: 131  F: -1957.534608848623975  |grad|_K:  4.104e-07  alpha:  8.737e-02  linmin: -1.008e-06  t[s]:  11563.48
	FillingsUpdate:  mu: -0.138491300  nElectrons: 447.000000  magneticMoment: [ Abs: 24.68175  Tot: +23.60427 ]
	SubspaceRotationAdjust: set factor to 0.436
ElecMinimize: Iter: 132  F: -1957.534612454480339  |grad|_K:  3.979e-07  alpha:  8.695e-02  linmin: -8.900e-07  t[s]:  11642.30
	FillingsUpdate:  mu: -0.138495277  nElectrons: 447.000000  magneticMoment: [ Abs: 24.66610  Tot: +23.59276 ]
	SubspaceRotationAdjust: set factor to 0.431
ElecMinimize: Iter: 133  F: -1957.534615827715925  |grad|_K:  3.828e-07  alpha:  8.656e-02  linmin: -8.008e-07  t[s]:  11720.87
	FillingsUpdate:  mu: -0.138502164  nElectrons: 447.000000  magneticMoment: [ Abs: 24.65597  Tot: +23.58627 ]
	SubspaceRotationAdjust: set factor to 0.433
ElecMinimize: Iter: 134  F: -1957.534619005555669  |grad|_K:  3.708e-07  alpha:  8.812e-02  linmin: -7.065e-07  t[s]:  11799.49
	FillingsUpdate:  mu: -0.138507370  nElectrons: 447.000000  magneticMoment: [ Abs: 24.65097  Tot: +23.58447 ]
	SubspaceRotationAdjust: set factor to 0.449
ElecMinimize: Iter: 135  F: -1957.534622074334720  |grad|_K:  3.648e-07  alpha:  9.072e-02  linmin: -5.919e-07  t[s]:  11878.50
	FillingsUpdate:  mu: -0.138507518  nElectrons: 447.000000  magneticMoment: [ Abs: 24.65101  Tot: +23.58718 ]
	SubspaceRotationAdjust: set factor to 0.47
ElecMinimize: Iter: 136  F: -1957.534625071296887  |grad|_K:  3.614e-07  alpha:  9.159e-02  linmin: -4.290e-07  t[s]:  11956.45
	FillingsUpdate:  mu: -0.138501607  nElectrons: 447.000000  magneticMoment: [ Abs: 24.65605  Tot: +23.59427 ]
	SubspaceRotationAdjust: set factor to 0.48
ElecMinimize: Iter: 137  F: -1957.534627957474868  |grad|_K:  3.562e-07  alpha:  8.992e-02  linmin: -2.562e-07  t[s]:  12034.93
	FillingsUpdate:  mu: -0.138491225  nElectrons: 447.000000  magneticMoment: [ Abs: 24.66588  Tot: +23.60543 ]
	SubspaceRotationAdjust: set factor to 0.481
ElecMinimize: Iter: 138  F: -1957.534630698922911  |grad|_K:  3.491e-07  alpha:  8.800e-02  linmin: -3.907e-09  t[s]:  12113.39
	FillingsUpdate:  mu: -0.138479286  nElectrons: 447.000000  magneticMoment: [ Abs: 24.68029  Tot: +23.62043 ]
	SubspaceRotationAdjust: set factor to 0.482
ElecMinimize: Iter: 139  F: -1957.534633323043181  |grad|_K:  3.440e-07  alpha:  8.772e-02  linmin:  3.171e-07  t[s]:  12191.86
	FillingsUpdate:  mu: -0.138468595  nElectrons: 447.000000  magneticMoment: [ Abs: 24.69923  Tot: +23.63922 ]
	SubspaceRotationAdjust: set factor to 0.492
ElecMinimize: Iter: 140  F: -1957.534635886306432  |grad|_K:  3.427e-07  alpha:  8.834e-02  linmin:  6.370e-07  t[s]:  12270.99
	FillingsUpdate:  mu: -0.138460957  nElectrons: 447.000000  magneticMoment: [ Abs: 24.72252  Tot: +23.66158 ]
	SubspaceRotationAdjust: set factor to 0.504
ElecMinimize: Iter: 141  F: -1957.534638411013020  |grad|_K:  3.432e-07  alpha:  8.771e-02  linmin:  9.436e-07  t[s]:  12349.25
	FillingsUpdate:  mu: -0.138456561  nElectrons: 447.000000  magneticMoment: [ Abs: 24.74955  Tot: +23.68694 ]
	SubspaceRotationAdjust: set factor to 0.506
ElecMinimize: Iter: 142  F: -1957.534640871616830  |grad|_K:  3.423e-07  alpha:  8.529e-02  linmin:  1.139e-06  t[s]:  12427.60
	FillingsUpdate:  mu: -0.138453876  nElectrons: 447.000000  magneticMoment: [ Abs: 24.77965  Tot: +23.71464 ]
	SubspaceRotationAdjust: set factor to 0.5
ElecMinimize: Iter: 143  F: -1957.534643245037159  |grad|_K:  3.396e-07  alpha:  8.277e-02  linmin:  1.263e-06  t[s]:  12506.10
	FillingsUpdate:  mu: -0.138450340  nElectrons: 447.000000  magneticMoment: [ Abs: 24.81247  Tot: +23.74439 ]
	SubspaceRotationAdjust: set factor to 0.494
ElecMinimize: Iter: 144  F: -1957.534645544248178  |grad|_K:  3.376e-07  alpha:  8.147e-02  linmin:  1.308e-06  t[s]:  12585.12
	FillingsUpdate:  mu: -0.138443376  nElectrons: 447.000000  magneticMoment: [ Abs: 24.84796  Tot: +23.77615 ]
	SubspaceRotationAdjust: set factor to 0.494
ElecMinimize: Iter: 145  F: -1957.534647800055836  |grad|_K:  3.375e-07  alpha:  8.096e-02  linmin:  1.226e-06  t[s]:  12664.18
	FillingsUpdate:  mu: -0.138431313  nElectrons: 447.000000  magneticMoment: [ Abs: 24.88583  Tot: +23.80970 ]
	SubspaceRotationAdjust: set factor to 0.494
ElecMinimize: Iter: 146  F: -1957.534650026276267  |grad|_K:  3.382e-07  alpha:  7.992e-02  linmin:  1.114e-06  t[s]:  12742.64
	FillingsUpdate:  mu: -0.138413992  nElectrons: 447.000000  magneticMoment: [ Abs: 24.92532  Tot: +23.84440 ]
	SubspaceRotationAdjust: set factor to 0.488
ElecMinimize: Iter: 147  F: -1957.534652206604051  |grad|_K:  3.369e-07  alpha:  7.798e-02  linmin:  9.771e-07  t[s]:  12821.29
	FillingsUpdate:  mu: -0.138392585  nElectrons: 447.000000  magneticMoment: [ Abs: 24.96558  Tot: +23.87955 ]
	SubspaceRotationAdjust: set factor to 0.474
ElecMinimize: Iter: 148  F: -1957.534654320343407  |grad|_K:  3.328e-07  alpha:  7.613e-02  linmin:  8.573e-07  t[s]:  12900.11
	FillingsUpdate:  mu: -0.138368853  nElectrons: 447.000000  magneticMoment: [ Abs: 25.00605  Tot: +23.91471 ]
	SubspaceRotationAdjust: set factor to 0.457
ElecMinimize: Iter: 149  F: -1957.534656362625128  |grad|_K:  3.269e-07  alpha:  7.537e-02  linmin:  7.669e-07  t[s]:  12978.81
	FillingsUpdate:  mu: -0.138344465  nElectrons: 447.000000  magneticMoment: [ Abs: 25.04644  Tot: +23.94968 ]
	SubspaceRotationAdjust: set factor to 0.446
ElecMinimize: Iter: 150  F: -1957.534658342172179  |grad|_K:  3.208e-07  alpha:  7.568e-02  linmin:  6.307e-07  t[s]:  13057.05
	FillingsUpdate:  mu: -0.138320629  nElectrons: 447.000000  magneticMoment: [ Abs: 25.08645  Tot: +23.98428 ]
	SubspaceRotationAdjust: set factor to 0.441
ElecMinimize: Iter: 151  F: -1957.534660265435150  |grad|_K:  3.151e-07  alpha:  7.631e-02  linmin:  5.050e-07  t[s]:  13135.94
	FillingsUpdate:  mu: -0.138297890  nElectrons: 447.000000  magneticMoment: [ Abs: 25.12556  Tot: +24.01811 ]
	SubspaceRotationAdjust: set factor to 0.439
ElecMinimize: Iter: 152  F: -1957.534662125366594  |grad|_K:  3.091e-07  alpha:  7.648e-02  linmin:  3.444e-07  t[s]:  13213.88
	FillingsUpdate:  mu: -0.138276003  nElectrons: 447.000000  magneticMoment: [ Abs: 25.16322  Tot: +24.05074 ]
	SubspaceRotationAdjust: set factor to 0.44
ElecMinimize: Iter: 153  F: -1957.534663911909320  |grad|_K:  3.029e-07  alpha:  7.627e-02  linmin:  1.732e-07  t[s]:  13293.04
	FillingsUpdate:  mu: -0.138254123  nElectrons: 447.000000  magneticMoment: [ Abs: 25.19909  Tot: +24.08193 ]
	SubspaceRotationAdjust: set factor to 0.443
ElecMinimize: Iter: 154  F: -1957.534665623873934  |grad|_K:  2.968e-07  alpha:  7.609e-02  linmin:  3.682e-09  t[s]:  13371.40
	FillingsUpdate:  mu: -0.138231342  nElectrons: 447.000000  magneticMoment: [ Abs: 25.23299  Tot: +24.11157 ]
	SubspaceRotationAdjust: set factor to 0.448
ElecMinimize: Iter: 155  F: -1957.534667267243776  |grad|_K:  2.911e-07  alpha:  7.600e-02  linmin: -2.401e-07  t[s]:  13450.47
	FillingsUpdate:  mu: -0.138207310  nElectrons: 447.000000  magneticMoment: [ Abs: 25.26470  Tot: +24.13949 ]
	SubspaceRotationAdjust: set factor to 0.452
ElecMinimize: Iter: 156  F: -1957.534668843158897  |grad|_K:  2.846e-07  alpha:  7.575e-02  linmin: -4.755e-07  t[s]:  13529.33
	FillingsUpdate:  mu: -0.138182592  nElectrons: 447.000000  magneticMoment: [ Abs: 25.29379  Tot: +24.16534 ]
	SubspaceRotationAdjust: set factor to 0.452
ElecMinimize: Iter: 157  F: -1957.534670342306526  |grad|_K:  2.766e-07  alpha:  7.532e-02  linmin: -7.143e-07  t[s]:  13607.19
	FillingsUpdate:  mu: -0.138158475  nElectrons: 447.000000  magneticMoment: [ Abs: 25.31990  Tot: +24.18882 ]
	SubspaceRotationAdjust: set factor to 0.45
ElecMinimize: Iter: 158  F: -1957.534671756879106  |grad|_K:  2.674e-07  alpha:  7.522e-02  linmin: -8.717e-07  t[s]:  13685.79
	FillingsUpdate:  mu: -0.138136434  nElectrons: 447.000000  magneticMoment: [ Abs: 25.34299  Tot: +24.20988 ]
	SubspaceRotationAdjust: set factor to 0.449
ElecMinimize: Iter: 159  F: -1957.534673092041203  |grad|_K:  2.585e-07  alpha:  7.596e-02  linmin: -9.028e-07  t[s]:  13764.58
	FillingsUpdate:  mu: -0.138117730  nElectrons: 447.000000  magneticMoment: [ Abs: 25.36318  Tot: +24.22863 ]
	SubspaceRotationAdjust: set factor to 0.452
ElecMinimize: Iter: 160  F: -1957.534674362963642  |grad|_K:  2.511e-07  alpha:  7.732e-02  linmin: -8.588e-07  t[s]:  13842.67
	FillingsUpdate:  mu: -0.138103207  nElectrons: 447.000000  magneticMoment: [ Abs: 25.38057  Tot: +24.24512 ]
	SubspaceRotationAdjust: set factor to 0.456
ElecMinimize: Iter: 161  F: -1957.534675580192925  |grad|_K:  2.445e-07  alpha:  7.848e-02  linmin: -7.954e-07  t[s]:  13921.12
	FillingsUpdate:  mu: -0.138093058  nElectrons: 447.000000  magneticMoment: [ Abs: 25.39502  Tot: +24.25921 ]
	SubspaceRotationAdjust: set factor to 0.454
ElecMinimize: Iter: 162  F: -1957.534676741410976  |grad|_K:  2.372e-07  alpha:  7.897e-02  linmin: -7.320e-07  t[s]:  13999.01
	FillingsUpdate:  mu: -0.138086615  nElectrons: 447.000000  magneticMoment: [ Abs: 25.40646  Tot: +24.27077 ]
	SubspaceRotationAdjust: set factor to 0.446
ElecMinimize: Iter: 163  F: -1957.534677841185839  |grad|_K:  2.291e-07  alpha:  7.945e-02  linmin: -6.232e-07  t[s]:  14077.68
	FillingsUpdate:  mu: -0.138082562  nElectrons: 447.000000  magneticMoment: [ Abs: 25.41496  Tot: +24.27984 ]
	SubspaceRotationAdjust: set factor to 0.44
ElecMinimize: Iter: 164  F: -1957.534678885919220  |grad|_K:  2.220e-07  alpha:  8.089e-02  linmin: -5.631e-07  t[s]:  14156.70
	FillingsUpdate:  mu: -0.138079491  nElectrons: 447.000000  magneticMoment: [ Abs: 25.42073  Tot: +24.28655 ]
	SubspaceRotationAdjust: set factor to 0.443
ElecMinimize: Iter: 165  F: -1957.534679894998590  |grad|_K:  2.173e-07  alpha:  8.326e-02  linmin: -4.909e-07  t[s]:  14235.24
	FillingsUpdate:  mu: -0.138076448  nElectrons: 447.000000  magneticMoment: [ Abs: 25.42387  Tot: +24.29099 ]
	SubspaceRotationAdjust: set factor to 0.452
ElecMinimize: Iter: 166  F: -1957.534680882871498  |grad|_K:  2.144e-07  alpha:  8.507e-02  linmin: -3.609e-07  t[s]:  14314.20
	FillingsUpdate:  mu: -0.138073352  nElectrons: 447.000000  magneticMoment: [ Abs: 25.42440  Tot: +24.29309 ]
	SubspaceRotationAdjust: set factor to 0.458
ElecMinimize: Iter: 167  F: -1957.534681843821545  |grad|_K:  2.111e-07  alpha:  8.502e-02  linmin: -3.271e-07  t[s]:  14391.94
	FillingsUpdate:  mu: -0.138071071  nElectrons: 447.000000  magneticMoment: [ Abs: 25.42235  Tot: +24.29280 ]
	SubspaceRotationAdjust: set factor to 0.453
ElecMinimize: Iter: 168  F: -1957.534682764442778  |grad|_K:  2.063e-07  alpha:  8.408e-02  linmin: -2.335e-07  t[s]:  14471.32
	FillingsUpdate:  mu: -0.138071057  nElectrons: 447.000000  magneticMoment: [ Abs: 25.41783  Tot: +24.29017 ]
	SubspaceRotationAdjust: set factor to 0.447
ElecMinimize: Iter: 169  F: -1957.534683643292283  |grad|_K:  2.016e-07  alpha:  8.408e-02  linmin: -1.443e-07  t[s]:  14549.55
	FillingsUpdate:  mu: -0.138074818  nElectrons: 447.000000  magneticMoment: [ Abs: 25.41088  Tot: +24.28521 ]
	SubspaceRotationAdjust: set factor to 0.449
ElecMinimize: Iter: 170  F: -1957.534684497452417  |grad|_K:  1.992e-07  alpha:  8.558e-02  linmin: -1.399e-08  t[s]:  14627.54
	FillingsUpdate:  mu: -0.138083422  nElectrons: 447.000000  magneticMoment: [ Abs: 25.40151  Tot: +24.27790 ]
	SubspaceRotationAdjust: set factor to 0.46
ElecMinimize: Iter: 171  F: -1957.534685343474848  |grad|_K:  1.989e-07  alpha:  8.688e-02  linmin:  1.012e-07  t[s]:  14706.07
	FillingsUpdate:  mu: -0.138096870  nElectrons: 447.000000  magneticMoment: [ Abs: 25.38983  Tot: +24.26831 ]
	SubspaceRotationAdjust: set factor to 0.468
ElecMinimize: Iter: 172  F: -1957.534686179625396  |grad|_K:  1.984e-07  alpha:  8.614e-02  linmin:  1.710e-07  t[s]:  14785.49
	FillingsUpdate:  mu: -0.138113758  nElectrons: 447.000000  magneticMoment: [ Abs: 25.37618  Tot: +24.25670 ]
	SubspaceRotationAdjust: set factor to 0.467
ElecMinimize: Iter: 173  F: -1957.534686991559511  |grad|_K:  1.961e-07  alpha:  8.408e-02  linmin:  3.139e-07  t[s]:  14863.70
	FillingsUpdate:  mu: -0.138131867  nElectrons: 447.000000  magneticMoment: [ Abs: 25.36084  Tot: +24.24328 ]
	SubspaceRotationAdjust: set factor to 0.462
ElecMinimize: Iter: 174  F: -1957.534687773441647  |grad|_K:  1.933e-07  alpha:  8.287e-02  linmin:  3.695e-07  t[s]:  14942.85
	FillingsUpdate:  mu: -0.138149077  nElectrons: 447.000000  magneticMoment: [ Abs: 25.34379  Tot: +24.22803 ]
	SubspaceRotationAdjust: set factor to 0.467
ElecMinimize: Iter: 175  F: -1957.534688537496322  |grad|_K:  1.922e-07  alpha:  8.341e-02  linmin:  3.920e-07  t[s]:  15021.76
	FillingsUpdate:  mu: -0.138163697  nElectrons: 447.000000  magneticMoment: [ Abs: 25.32487  Tot: +24.21080 ]
	SubspaceRotationAdjust: set factor to 0.483
ElecMinimize: Iter: 176  F: -1957.534689299648790  |grad|_K:  1.933e-07  alpha:  8.420e-02  linmin:  4.063e-07  t[s]:  15098.95
	FillingsUpdate:  mu: -0.138174633  nElectrons: 447.000000  magneticMoment: [ Abs: 25.30423  Tot: +24.19173 ]
	SubspaceRotationAdjust: set factor to 0.501
ElecMinimize: Iter: 177  F: -1957.534690060663479  |grad|_K:  1.945e-07  alpha:  8.313e-02  linmin:  3.635e-07  t[s]:  15177.55
	FillingsUpdate:  mu: -0.138181914  nElectrons: 447.000000  magneticMoment: [ Abs: 25.28245  Tot: +24.17135 ]
	SubspaceRotationAdjust: set factor to 0.508
ElecMinimize: Iter: 178  F: -1957.534690806472554  |grad|_K:  1.939e-07  alpha:  8.040e-02  linmin:  3.453e-07  t[s]:  15255.62
	FillingsUpdate:  mu: -0.138186929  nElectrons: 447.000000  magneticMoment: [ Abs: 25.26007  Tot: +24.15018 ]
	SubspaceRotationAdjust: set factor to 0.506
ElecMinimize: Iter: 179  F: -1957.534691525746666  |grad|_K:  1.916e-07  alpha:  7.806e-02  linmin:  3.738e-07  t[s]:  15334.56
	FillingsUpdate:  mu: -0.138191919  nElectrons: 447.000000  magneticMoment: [ Abs: 25.23724  Tot: +24.12838 ]
	SubspaceRotationAdjust: set factor to 0.507
ElecMinimize: Iter: 180  F: -1957.534692221514661  |grad|_K:  1.896e-07  alpha:  7.731e-02  linmin:  2.994e-07  t[s]:  15413.14
	FillingsUpdate:  mu: -0.138199233  nElectrons: 447.000000  magneticMoment: [ Abs: 25.21383  Tot: +24.10587 ]
	SubspaceRotationAdjust: set factor to 0.518
ElecMinimize: Iter: 181  F: -1957.534692905166594  |grad|_K:  1.891e-07  alpha:  7.755e-02  linmin:  2.588e-07  t[s]:  15491.54
	FillingsUpdate:  mu: -0.138210686  nElectrons: 447.000000  magneticMoment: [ Abs: 25.18998  Tot: +24.08279 ]
	SubspaceRotationAdjust: set factor to 0.534
ElecMinimize: Iter: 182  F: -1957.534693579692430  |grad|_K:  1.887e-07  alpha:  7.699e-02  linmin:  2.117e-07  t[s]:  15570.58
	FillingsUpdate:  mu: -0.138226940  nElectrons: 447.000000  magneticMoment: [ Abs: 25.16629  Tot: +24.05977 ]
	SubspaceRotationAdjust: set factor to 0.542
ElecMinimize: Iter: 183  F: -1957.534694234759399  |grad|_K:  1.866e-07  alpha:  7.503e-02  linmin:  1.359e-07  t[s]:  15649.24
	FillingsUpdate:  mu: -0.138247238  nElectrons: 447.000000  magneticMoment: [ Abs: 25.14348  Tot: +24.03753 ]
	SubspaceRotationAdjust: set factor to 0.538
ElecMinimize: Iter: 184  F: -1957.534694857601153  |grad|_K:  1.821e-07  alpha:  7.293e-02  linmin:  1.065e-07  t[s]:  15727.64
	FillingsUpdate:  mu: -0.138269813  nElectrons: 447.000000  magneticMoment: [ Abs: 25.12194  Tot: +24.01650 ]
	SubspaceRotationAdjust: set factor to 0.529
ElecMinimize: Iter: 185  F: -1957.534695443918963  |grad|_K:  1.767e-07  alpha:  7.207e-02  linmin:  3.528e-08  t[s]:  15806.77
	FillingsUpdate:  mu: -0.138292591  nElectrons: 447.000000  magneticMoment: [ Abs: 25.10163  Tot: +23.99667 ]
	SubspaceRotationAdjust: set factor to 0.526
ElecMinimize: Iter: 186  F: -1957.534696001020393  |grad|_K:  1.721e-07  alpha:  7.273e-02  linmin: -3.041e-08  t[s]:  15886.02
	FillingsUpdate:  mu: -0.138313493  nElectrons: 447.000000  magneticMoment: [ Abs: 25.08244  Tot: +23.97796 ]
	SubspaceRotationAdjust: set factor to 0.532
ElecMinimize: Iter: 187  F: -1957.534696537440595  |grad|_K:  1.687e-07  alpha:  7.379e-02  linmin: -1.155e-07  t[s]:  15964.59
	FillingsUpdate:  mu: -0.138330585  nElectrons: 447.000000  magneticMoment: [ Abs: 25.06450  Tot: +23.96052 ]
	SubspaceRotationAdjust: set factor to 0.537
ElecMinimize: Iter: 188  F: -1957.534697054346225  |grad|_K:  1.653e-07  alpha:  7.397e-02  linmin: -2.066e-07  t[s]:  16044.24
	FillingsUpdate:  mu: -0.138342499  nElectrons: 447.000000  magneticMoment: [ Abs: 25.04818  Tot: +23.94473 ]
	SubspaceRotationAdjust: set factor to 0.533
ElecMinimize: Iter: 189  F: -1957.534697546329426  |grad|_K:  1.607e-07  alpha:  7.332e-02  linmin: -2.710e-07  t[s]:  16122.92
	FillingsUpdate:  mu: -0.138348930  nElectrons: 447.000000  magneticMoment: [ Abs: 25.03375  Tot: +23.93088 ]
	SubspaceRotationAdjust: set factor to 0.522
ElecMinimize: Iter: 190  F: -1957.534698008817259  |grad|_K:  1.550e-07  alpha:  7.295e-02  linmin: -4.716e-07  t[s]:  16200.64
	FillingsUpdate:  mu: -0.138350652  nElectrons: 447.000000  magneticMoment: [ Abs: 25.02122  Tot: +23.91898 ]
	SubspaceRotationAdjust: set factor to 0.512
ElecMinimize: Iter: 191  F: -1957.534698444502055  |grad|_K:  1.494e-07  alpha:  7.384e-02  linmin: -4.474e-07  t[s]:  16279.44
	FillingsUpdate:  mu: -0.138349039  nElectrons: 447.000000  magneticMoment: [ Abs: 25.01050  Tot: +23.90893 ]
	SubspaceRotationAdjust: set factor to 0.508
ElecMinimize: Iter: 192  F: -1957.534698859281207  |grad|_K:  1.449e-07  alpha:  7.559e-02  linmin: -3.899e-07  t[s]:  16357.72
	FillingsUpdate:  mu: -0.138345625  nElectrons: 447.000000  magneticMoment: [ Abs: 25.00153  Tot: +23.90069 ]
	SubspaceRotationAdjust: set factor to 0.507
ElecMinimize: Iter: 193  F: -1957.534699256938438  |grad|_K:  1.410e-07  alpha:  7.705e-02  linmin: -4.279e-07  t[s]:  16436.91
	FillingsUpdate:  mu: -0.138341787  nElectrons: 447.000000  magneticMoment: [ Abs: 24.99437  Tot: +23.89430 ]
	SubspaceRotationAdjust: set factor to 0.5
ElecMinimize: Iter: 194  F: -1957.534699636570394  |grad|_K:  1.368e-07  alpha:  7.767e-02  linmin: -3.646e-07  t[s]:  16515.69
	FillingsUpdate:  mu: -0.138338506  nElectrons: 447.000000  magneticMoment: [ Abs: 24.98911  Tot: +23.88982 ]
	SubspaceRotationAdjust: set factor to 0.487
ElecMinimize: Iter: 195  F: -1957.534699995429037  |grad|_K:  1.321e-07  alpha:  7.804e-02  linmin: -4.193e-07  t[s]:  16593.10
	FillingsUpdate:  mu: -0.138336216  nElectrons: 447.000000  magneticMoment: [ Abs: 24.98569  Tot: +23.88719 ]
	SubspaceRotationAdjust: set factor to 0.473
ElecMinimize: Iter: 196  F: -1957.534700335912021  |grad|_K:  1.276e-07  alpha:  7.938e-02  linmin: -2.734e-07  t[s]:  16671.94
	FillingsUpdate:  mu: -0.138334895  nElectrons: 447.000000  magneticMoment: [ Abs: 24.98402  Tot: +23.88630 ]
	SubspaceRotationAdjust: set factor to 0.465
ElecMinimize: Iter: 197  F: -1957.534700662276919  |grad|_K:  1.242e-07  alpha:  8.153e-02  linmin: -2.218e-07  t[s]:  16750.26
	FillingsUpdate:  mu: -0.138334228  nElectrons: 447.000000  magneticMoment: [ Abs: 24.98404  Tot: +23.88708 ]
	SubspaceRotationAdjust: set factor to 0.463
ElecMinimize: Iter: 198  F: -1957.534700978841329  |grad|_K:  1.217e-07  alpha:  8.348e-02  linmin: -2.011e-07  t[s]:  16827.81
	FillingsUpdate:  mu: -0.138333786  nElectrons: 447.000000  magneticMoment: [ Abs: 24.98572  Tot: +23.88947 ]
	SubspaceRotationAdjust: set factor to 0.46
ElecMinimize: Iter: 199  F: -1957.534701285712572  |grad|_K:  1.192e-07  alpha:  8.440e-02  linmin: -1.299e-07  t[s]:  16906.42
	FillingsUpdate:  mu: -0.138333150  nElectrons: 447.000000  magneticMoment: [ Abs: 24.98896  Tot: +23.89335 ]
	SubspaceRotationAdjust: set factor to 0.454
ElecMinimize: Iter: 200  F: -1957.534701581685567  |grad|_K:  1.168e-07  alpha:  8.476e-02  linmin: -8.938e-08  t[s]:  16984.60
ElecMinimize: None of the convergence criteria satisfied after 200 iterations.
Setting wave functions to eigenvectors of Hamiltonian
Vacuum energy after initial minimize, F = -1957.534701581685567

	Linear fluid (dielectric constant: 78.4, screening length: 5.74355 Bohr) occupying 0.735874 of unit cell:	Completed after 13 iterations at t[s]:  17003.96

-------- Electronic minimization -----------
	Linear fluid (dielectric constant: 78.4, screening length: 5.74355 Bohr) occupying 0.735874 of unit cell:	Completed after 0 iterations at t[s]:  17024.74
	FillingsUpdate:  mu: -0.154921101  nElectrons: 447.000000  magneticMoment: [ Abs: 25.02918  Tot: +23.93241 ]
ElecMinimize: Iter:   0  F: -1957.475537977552221  |grad|_K:  2.904e-06  alpha:  1.000e+00
	Linear fluid (dielectric constant: 78.4, screening length: 5.74355 Bohr) occupying 0.737863 of unit cell:	Completed after 10 iterations at t[s]:  17086.03
	Linear fluid (dielectric constant: 78.4, screening length: 5.74355 Bohr) occupying 0.736973 of unit cell:	Completed after 11 iterations at t[s]:  17114.54
[...]
ElecMinimize: 	Step increased F by 1.908529e-08, reducing alpha to 6.496100e-05.
ElecMinimize: 	Step failed to reduce F after 3 attempts. Quitting step.
ElecMinimize: 	Undoing step.
	Linear fluid (dielectric constant: 78.4, screening length: 5.74355 Bohr) occupying 0.738293 of unit cell:	Completed after 0 iterations at t[s]:  23710.19
ElecMinimize: 	Step failed: resetting search direction.
	FillingsUpdate:  mu: -0.144036347  nElectrons: 447.000000  magneticMoment: [ Abs: 26.11825  Tot: +24.97543 ]
	SubspaceRotationAdjust: set factor to 0.762
ElecMinimize: Iter:  12  F: -1957.477541229585995  |grad|_K:  2.275e-08  alpha:  6.496e-05
	Linear fluid (dielectric constant: 78.4, screening length: 5.74355 Bohr) occupying 0.738294 of unit cell:	Completed after 0 iterations at t[s]:  23767.56
ElecMinimize: 	Predicted alpha/alphaT>3.000000, increasing alphaT to 3.918616e-01.
	Linear fluid (dielectric constant: 78.4, screening length: 5.74355 Bohr) occupying 0.738294 of unit cell:	Completed after 0 iterations at t[s]:  23792.80
	Linear fluid (dielectric constant: 78.4, screening length: 5.74355 Bohr) occupying 0.738294 of unit cell:	Completed after 0 iterations at t[s]:  23818.38
	FillingsUpdate:  mu: -0.144037266  nElectrons: 447.000000  magneticMoment: [ Abs: 26.12057  Tot: +24.97763 ]
	SubspaceRotationAdjust: set factor to 0.997
	SubspaceRotationAdjust: resetting CG because factor has changed by 7.69216
	Linear fluid (dielectric constant: 78.4, screening length: 5.74355 Bohr) occupying 0.738294 of unit cell:	Completed after 0 iterations at t[s]:  23867.21
ElecMinimize: 	State modified externally: resetting search direction.
ElecMinimize: Iter:  13  F: -1957.477541294983666  |grad|_K:  1.973e-08  alpha:  5.890e-01
	Linear fluid (dielectric constant: 78.4, screening length: 5.74355 Bohr) occupying 0.738297 of unit cell:	Completed after 0 iterations at t[s]:  23924.45
	Linear fluid (dielectric constant: 78.4, screening length: 5.74355 Bohr) occupying 0.738296 of unit cell:	Completed after 0 iterations at t[s]:  23949.71
	FillingsUpdate:  mu: -0.144036760  nElectrons: 447.000000  magneticMoment: [ Abs: 26.12292  Tot: +24.97987 ]
	SubspaceRotationAdjust: set factor to 1.13
ElecMinimize: Iter:  14  F: -1957.477541330662689  |grad|_K:  1.526e-08  alpha:  3.734e-01  linmin: -1.139e-07  t[s]:  23983.36
	Linear fluid (dielectric constant: 78.4, screening length: 5.74355 Bohr) occupying 0.738299 of unit cell:	Completed after 1 iterations at t[s]:  24007.15
	Linear fluid (dielectric constant: 78.4, screening length: 5.74355 Bohr) occupying 0.738298 of unit cell:	Completed after 0 iterations at t[s]:  24032.95
ElecMinimize: 	Step increased F by 1.252556e-08, reducing alpha to 1.550058e-02.
	Linear fluid (dielectric constant: 78.4, screening length: 5.74355 Bohr) occupying 0.738296 of unit cell:	Completed after 0 iterations at t[s]:  24087.04
ElecMinimize: 	Step increased F by 1.745912e-08, reducing alpha to 1.550058e-03.
	Linear fluid (dielectric constant: 78.4, screening length: 5.74355 Bohr) occupying 0.738296 of unit cell:	Completed after 0 iterations at t[s]:  24140.65
ElecMinimize: 	Step increased F by 1.805324e-08, reducing alpha to 1.550058e-04.
ElecMinimize: 	Step failed to reduce F after 3 attempts. Quitting step.
ElecMinimize: 	Undoing step.
	Linear fluid (dielectric constant: 78.4, screening length: 5.74355 Bohr) occupying 0.738296 of unit cell:	Completed after 0 iterations at t[s]:  24193.76
ElecMinimize: 	Step failed: resetting search direction.
	FillingsUpdate:  mu: -0.144019116  nElectrons: 447.000000  magneticMoment: [ Abs: 26.12293  Tot: +24.97988 ]
	SubspaceRotationAdjust: set factor to 1.18
ElecMinimize: Iter:  15  F: -1957.477541312587391  |grad|_K:  2.170e-08  alpha:  1.550e-04
	Linear fluid (dielectric constant: 78.4, screening length: 5.74355 Bohr) occupying 0.738295 of unit cell:	Completed after 0 iterations at t[s]:  24250.57
	Linear fluid (dielectric constant: 78.4, screening length: 5.74355 Bohr) occupying 0.738294 of unit cell:	Completed after 1 iterations at t[s]:  24276.68
ElecMinimize: 	Step increased F by 6.271193e-09, reducing alpha to 5.243166e-02.
	Linear fluid (dielectric constant: 78.4, screening length: 5.74355 Bohr) occupying 0.738296 of unit cell:	Completed after 0 iterations at t[s]:  24330.44
	FillingsUpdate:  mu: -0.144034205  nElectrons: 447.000000  magneticMoment: [ Abs: 26.12323  Tot: +24.98017 ]
	SubspaceRotationAdjust: set factor to 1.01
ElecMinimize: Iter:  16  F: -1957.477541334701982  |grad|_K:  1.410e-08  alpha:  5.243e-02  linmin: -4.022e-04  t[s]:  24363.94
	Linear fluid (dielectric constant: 78.4, screening length: 5.74355 Bohr) occupying 0.738296 of unit cell:	Completed after 0 iterations at t[s]:  24387.47
ElecMinimize: 	Predicted alpha/alphaT>3.000000, increasing alphaT to 1.572950e-01.
	Linear fluid (dielectric constant: 78.4, screening length: 5.74355 Bohr) occupying 0.738297 of unit cell:	Completed after 0 iterations at t[s]:  24412.61
	Linear fluid (dielectric constant: 78.4, screening length: 5.74355 Bohr) occupying 0.738297 of unit cell:	Completed after 0 iterations at t[s]:  24438.37
	FillingsUpdate:  mu: -0.144033717  nElectrons: 447.000000  magneticMoment: [ Abs: 26.12576  Tot: +24.98257 ]
	SubspaceRotationAdjust: set factor to 1.15
ElecMinimize: Iter:  17  F: -1957.477541350443744  |grad|_K:  1.351e-08  alpha:  2.807e-01  linmin:  6.799e-06  t[s]:  24471.95
	Linear fluid (dielectric constant: 78.4, screening length: 5.74355 Bohr) occupying 0.738300 of unit cell:	Completed after 0 iterations at t[s]:  24495.77
	Linear fluid (dielectric constant: 78.4, screening length: 5.74355 Bohr) occupying 0.738300 of unit cell:	Completed after 0 iterations at t[s]:  24521.60
	FillingsUpdate:  mu: -0.144030863  nElectrons: 447.000000  magneticMoment: [ Abs: 26.12975  Tot: +24.98634 ]
	SubspaceRotationAdjust: set factor to 1.49
ElecMinimize: Iter:  18  F: -1957.477541364639592  |grad|_K:  1.466e-08  alpha:  2.995e-01  linmin: -1.970e-04  t[s]:  24554.95
	Linear fluid (dielectric constant: 78.4, screening length: 5.74355 Bohr) occupying 0.738304 of unit cell:	Completed after 1 iterations at t[s]:  24578.84
	Linear fluid (dielectric constant: 78.4, screening length: 5.74355 Bohr) occupying 0.738301 of unit cell:	Completed after 0 iterations at t[s]:  24604.49
ElecMinimize: 	Step increased F by 1.985859e-08, reducing alpha to 7.525400e-03.
	Linear fluid (dielectric constant: 78.4, screening length: 5.74355 Bohr) occupying 0.738300 of unit cell:	Completed after 0 iterations at t[s]:  24657.94
ElecMinimize: 	Step increased F by 1.443482e-08, reducing alpha to 7.525400e-04.
	Linear fluid (dielectric constant: 78.4, screening length: 5.74355 Bohr) occupying 0.738300 of unit cell:	Completed after 0 iterations at t[s]:  24711.31
ElecMinimize: 	Step increased F by 1.392186e-08, reducing alpha to 7.525400e-05.
ElecMinimize: 	Step failed to reduce F after 3 attempts. Quitting step.
ElecMinimize: 	Undoing step.
	Linear fluid (dielectric constant: 78.4, screening length: 5.74355 Bohr) occupying 0.738300 of unit cell:	Completed after 0 iterations at t[s]:  24764.24
ElecMinimize: 	Step failed: resetting search direction.
	FillingsUpdate:  mu: -0.143993952  nElectrons: 447.000000  magneticMoment: [ Abs: 26.12977  Tot: +24.98635 ]
	SubspaceRotationAdjust: set factor to 1.19
ElecMinimize: Iter:  19  F: -1957.477541350733645  |grad|_K:  3.530e-08  alpha:  7.525e-05
	Linear fluid (dielectric constant: 78.4, screening length: 5.74355 Bohr) occupying 0.738294 of unit cell:	Completed after 2 iterations at t[s]:  24821.44
	Linear fluid (dielectric constant: 78.4, screening length: 5.74355 Bohr) occupying 0.738297 of unit cell:	Completed after 0 iterations at t[s]:  24847.09
	FillingsUpdate:  mu: -0.144042641  nElectrons: 447.000000  magneticMoment: [ Abs: 26.13025  Tot: +24.98681 ]
	SubspaceRotationAdjust: set factor to 0.639
ElecMinimize: Iter:  20  F: -1957.477541394014452  |grad|_K:  2.808e-08  alpha:  1.204e-01  linmin:  2.355e-03  t[s]:  24880.94
	Linear fluid (dielectric constant: 78.4, screening length: 5.74355 Bohr) occupying 0.738298 of unit cell:	Completed after 0 iterations at t[s]:  24904.45
	Linear fluid (dielectric constant: 78.4, screening length: 5.74355 Bohr) occupying 0.738298 of unit cell:	Completed after 0 iterations at t[s]:  24930.28
	FillingsUpdate:  mu: -0.144042206  nElectrons: 447.000000  magneticMoment: [ Abs: 26.13232  Tot: +24.98872 ]
	SubspaceRotationAdjust: set factor to 0.747
ElecMinimize: Iter:  21  F: -1957.477541411434458  |grad|_K:  2.443e-08  alpha:  2.792e-01  linmin: -8.398e-06  t[s]:  24963.79
	Linear fluid (dielectric constant: 78.4, screening length: 5.74355 Bohr) occupying 0.738301 of unit cell:	Completed after 2 iterations at t[s]:  24987.13
	Linear fluid (dielectric constant: 78.4, screening length: 5.74355 Bohr) occupying 0.738299 of unit cell:	Completed after 0 iterations at t[s]:  25013.21
ElecMinimize: 	Step increased F by 3.743116e-08, reducing alpha to 6.280835e-03.
	Linear fluid (dielectric constant: 78.4, screening length: 5.74355 Bohr) occupying 0.738298 of unit cell:	Completed after 0 iterations at t[s]:  25066.22
ElecMinimize: 	Step increased F by 2.349316e-08, reducing alpha to 6.280835e-04.
	Linear fluid (dielectric constant: 78.4, screening length: 5.74355 Bohr) occupying 0.738298 of unit cell:	Completed after 0 iterations at t[s]:  25119.27
ElecMinimize: 	Step increased F by 2.210822e-08, reducing alpha to 6.280835e-05.
ElecMinimize: 	Step failed to reduce F after 3 attempts. Quitting step.
ElecMinimize: 	Undoing step.
	Linear fluid (dielectric constant: 78.4, screening length: 5.74355 Bohr) occupying 0.738298 of unit cell:	Completed after 0 iterations at t[s]:  25172.68
ElecMinimize: 	Step failed: resetting search direction.
	FillingsUpdate:  mu: -0.144006262  nElectrons: 447.000000  magneticMoment: [ Abs: 26.13232  Tot: +24.98872 ]
	SubspaceRotationAdjust: set factor to 0.57
ElecMinimize: Iter:  22  F: -1957.477541389416274  |grad|_K:  2.642e-08  alpha:  6.281e-05
	Linear fluid (dielectric constant: 78.4, screening length: 5.74355 Bohr) occupying 0.738296 of unit cell:	Completed after 2 iterations at t[s]:  25230.32
	Linear fluid (dielectric constant: 78.4, screening length: 5.74355 Bohr) occupying 0.738297 of unit cell:	Completed after 0 iterations at t[s]:  25256.22
ElecMinimize: 	Step increased F by 1.360627e-08, reducing alpha to 9.213812e-03.
	Linear fluid (dielectric constant: 78.4, screening length: 5.74355 Bohr) occupying 0.738298 of unit cell:	Completed after 0 iterations at t[s]:  25309.27
ElecMinimize: 	Step increased F by 5.308038e-09, reducing alpha to 9.213812e-04.
	Linear fluid (dielectric constant: 78.4, screening length: 5.74355 Bohr) occupying 0.738298 of unit cell:	Completed after 0 iterations at t[s]:  25362.17
ElecMinimize: 	Step increased F by 4.790309e-09, reducing alpha to 9.213812e-05.
ElecMinimize: 	Step failed to reduce F after 3 attempts. Quitting step.
ElecMinimize: 	Undoing step.
	Linear fluid (dielectric constant: 78.4, screening length: 5.74355 Bohr) occupying 0.738298 of unit cell:	Completed after 0 iterations at t[s]:  25416.38
ElecMinimize: 	Step failed along negative gradient direction.
ElecMinimize: Probably at roundoff error limit. (Stopping)
Setting wave functions to eigenvectors of Hamiltonian

# Ionic positions in lattice coordinates:
ion Ti   0.166666674541666   0.083333342083333   0.566016645717885 1
ion Ti   0.083333341208333   0.166666675416666   0.433983354282116 1
ion Ti   0.416666674541666   0.083333342083333   0.566016645717885 1
ion Ti   0.333333341208333   0.166666675416666   0.433983354282116 1
ion Ti   0.666666674541666   0.083333342083333   0.566016645717885 1
ion Ti   0.583333341208333   0.166666675416666   0.433983354282116 1
ion Ti   0.916666674541666   0.083333342083333   0.566016645717885 1
ion Ti   0.833333341208333   0.166666675416666   0.433983354282116 1
ion Ti   0.166666674541666   0.333333342083333   0.566016645717885 1
ion Ti   0.083333341208333   0.416666675416666   0.433983354282116 1
ion Ti   0.416666674541666   0.333333342083333   0.566016645717885 1
ion Ti   0.333333341208333   0.416666675416666   0.433983354282116 1
ion Ti   0.666666674541666   0.333333342083333   0.566016645717885 1
ion Ti   0.583333341208333   0.416666675416666   0.433983354282116 1
ion Ti   0.916666674541666   0.333333342083333   0.566016645717885 1
ion Ti   0.833333341208333   0.416666675416666   0.433983354282116 1
ion Ti   0.166666674541666   0.583333342083333   0.566016645717885 1
ion Ti   0.083333341208333   0.666666675416666   0.433983354282116 1
ion Ti   0.416666674541666   0.583333342083333   0.566016645717885 1
ion Ti   0.333333341208333   0.666666675416666   0.433983354282116 1
ion Ti   0.666666674541666   0.583333342083333   0.566016645717885 1
ion Ti   0.583333341208333   0.666666675416666   0.433983354282116 1
ion Ti   0.916666674541666   0.583333342083333   0.566016645717885 1
ion Ti   0.833333341208333   0.666666675416666   0.433983354282116 1
ion Ti   0.166666674541666   0.833333342083333   0.566016645717885 1
ion Ti   0.083333341208333   0.916666675416666   0.433983354282116 1
ion Ti   0.416666674541666   0.833333342083333   0.566016645717885 1
ion Ti   0.333333341208333   0.916666675416666   0.433983354282116 1
ion Ti   0.666666674541666   0.833333342083333   0.566016645717885 1
ion Ti   0.583333341208333   0.916666675416666   0.433983354282116 1
ion Ti   0.916666674541666   0.833333342083333   0.566016645717885 1
ion Ti   0.833333341208333   0.916666675416666   0.433983354282116 1
ion C   0.000000007874999   0.000000008750000   0.500000000000000 1
ion C   0.250000007874999   0.000000008750000   0.500000000000000 1
ion C   0.500000007875000   0.000000008750000   0.500000000000000 1
ion C   0.750000007875000   0.000000008750000   0.500000000000000 1
ion C   0.000000007874999   0.250000008750000   0.500000000000000 1
ion C   0.250000007874999   0.250000008750000   0.500000000000000 1
ion C   0.500000007875000   0.250000008750000   0.500000000000000 1
ion C   0.750000007875000   0.250000008750000   0.500000000000000 1
ion C   0.000000007874999   0.500000008750000   0.500000000000000 1
ion C   0.250000007874999   0.500000008750000   0.500000000000000 1
ion C   0.500000007875000   0.500000008750000   0.500000000000000 1
ion C   0.750000007875000   0.500000008750000   0.500000000000000 1
ion C   1.000000007875000   0.750000008750000   0.500000000000000 1
ion C   0.250000007874999   0.750000008750000   0.500000000000000 1
ion C   0.500000007875000   0.750000008750000   0.500000000000000 1
ion C   0.750000007875000   0.750000008750000   0.500000000000000 1


# Forces in Lattice coordinates:
force Ti   0.000000000000000   0.000000000000000   0.002250359534825 1
force Ti   0.000000000000000   0.000000000000000  -0.002250359534598 1
force Ti   0.000000000000000   0.000000000000000   0.002250359534825 1
force Ti  -0.000000000000000   0.000000000000000  -0.002250359535052 1
force Ti   0.000000000000000  -0.000000000000000   0.002250359534825 1
force Ti   0.000000000000000   0.000000000000000  -0.002250359534825 1
force Ti  -0.000000000000000   0.000000000000000   0.002250359534598 1
force Ti   0.000000000000000  -0.000000000000000  -0.002250359534825 1
force Ti  -0.000000000000000  -0.000000000000000   0.002250359534370 1
force Ti   0.000000000000000   0.000000000000000  -0.002250359535052 1
force Ti  -0.000000000000000   0.000000000000000   0.002250359534825 1
force Ti  -0.000000000000000  -0.000000000000000  -0.002250359534598 1
force Ti  -0.000000000000000  -0.000000000000000   0.002250359534370 1
force Ti   0.000000000000000   0.000000000000000  -0.002250359534825 1
force Ti  -0.000000000000000   0.000000000000000   0.002250359534825 1
force Ti  -0.000000000000000  -0.000000000000000  -0.002250359534825 1
force Ti   0.000000000000000   0.000000000000000   0.002250359534825 1
force Ti  -0.000000000000000  -0.000000000000000  -0.002250359535052 1
force Ti  -0.000000000000000   0.000000000000000   0.002250359534598 1
force Ti  -0.000000000000000   0.000000000000000  -0.002250359535052 1
force Ti  -0.000000000000000  -0.000000000000000   0.002250359534598 1
force Ti  -0.000000000000000   0.000000000000000  -0.002250359534825 1
force Ti  -0.000000000000000   0.000000000000000   0.002250359534598 1
force Ti  -0.000000000000000  -0.000000000000000  -0.002250359535052 1
force Ti   0.000000000000000  -0.000000000000000   0.002250359534825 1
force Ti   0.000000000000000  -0.000000000000000  -0.002250359535052 1
force Ti  -0.000000000000000   0.000000000000000   0.002250359534825 1
force Ti  -0.000000000000000   0.000000000000000  -0.002250359534825 1
force Ti  -0.000000000000000  -0.000000000000000   0.002250359534825 1
force Ti   0.000000000000000   0.000000000000000  -0.002250359535052 1
force Ti  -0.000000000000000  -0.000000000000000   0.002250359534825 1
force Ti  -0.000000000000000  -0.000000000000000  -0.002250359534825 1
force C   0.000000000000000  -0.000000000000000   0.000000000000000 1
force C  -0.000000000000000   0.000000000000000   0.000000000000000 1
force C  -0.000000000000000  -0.000000000000000   0.000000000000000 1
force C   0.000000000000000   0.000000000000000   0.000000000000000 1
force C   0.000000000000000  -0.000000000000000   0.000000000000000 1
force C   0.000000000000000  -0.000000000000000  -0.000000000000000 1
force C   0.000000000000000  -0.000000000000000   0.000000000000000 1
force C  -0.000000000000000  -0.000000000000000  -0.000000000000000 1
force C  -0.000000000000000   0.000000000000000  -0.000000000000000 1
force C   0.000000000000000  -0.000000000000000   0.000000000000000 1
force C  -0.000000000000000   0.000000000000000  -0.000000000000000 1
force C  -0.000000000000000   0.000000000000000   0.000000000000000 1
force C  -0.000000000000000   0.000000000000000  -0.000000000000000 1
force C   0.000000000000000  -0.000000000000000  -0.000000000000000 1
force C  -0.000000000000000  -0.000000000000000   0.000000000000000 1
force C   0.000000000000000   0.000000000000000   0.000000000000000 1

# Energy components:
   A_diel =        0.0402927550409127
   Eewald =    10433.9468879853848193
       EH =    12014.8911649912934081
     Eloc =   -24774.1968713846836181
      Enl =      187.4822697569953220
      Exc =     -317.8646857841546307
 Exc_core =       42.4424253792467070
       KE =      455.9051342587400200
  MuShift =        0.0148929267271562
-------------------------------------
     Etot =    -1957.3384891154105389
       TS =        0.1390522692415306
-------------------------------------
        F =    -1957.4775413846521133

IonicMinimize: Iter:   3  F: -1957.477541384652113  |grad|_K:  3.249e-05  alpha:  1.000e+00  linmin:  1.000e+00  t[s]:  25465.85
IonicMinimize: Converged (|grad|_K<1.000000e-04).

#--- Lowdin population analysis ---
# oxidation-state Ti +0.859 +0.859 +0.859 +0.859 +0.859 +0.859 +0.859 +0.859 +0.859 +0.859 +0.859 +0.859 +0.859 +0.859 +0.859 +0.859 +0.859 +0.859 +0.859 +0.859 +0.859 +0.859 +0.859 +0.859 +0.859 +0.859 +0.859 +0.859 +0.859 +0.859 +0.859 +0.859
# magnetic-moments Ti +0.655 +0.655 +0.655 +0.655 +0.655 +0.655 +0.655 +0.655 +0.655 +0.655 +0.655 +0.655 +0.655 +0.655 +0.655 +0.655 +0.655 +0.655 +0.655 +0.655 +0.655 +0.655 +0.655 +0.655 +0.655 +0.655 +0.655 +0.655 +0.655 +0.655 +0.655 +0.655
# oxidation-state C -1.118 -1.118 -1.118 -1.118 -1.118 -1.118 -1.118 -1.118 -1.118 -1.118 -1.118 -1.118 -1.118 -1.118 -1.118 -1.118
# magnetic-moments C -0.016 -0.016 -0.016 -0.016 -0.016 -0.016 -0.016 -0.016 -0.016 -0.016 -0.016 -0.016 -0.016 -0.016 -0.016 -0.016


Dumping 'NbTe2.fillings' ... done
Dumping 'NbTe2.wfns' ... done
Dumping 'NbTe2.fluidState' ... done
Dumping 'NbTe2.ionpos' ... done
Dumping 'NbTe2.eigenvals' ... done
End date and time: Sun Jan 17 17:04:42 2021  (Duration: 0-7:04:35.96)
Done!
