
*************** JDFTx 1.5.0  ***************

Start date and time: Thu Jan  7 08:47:38 2021
Executable jdftx_gpu with command-line: -i Charged.in -o Charged.out
Running on hosts (process indices):  amax (0-4)
Divided in process groups (process indices):  0 (0)  1 (1)  2 (2)  3 (3)  4 (4)
gpuInit: Found compatible cuda device 0 'Tesla K80'
gpuInit: Found compatible cuda device 1 'Tesla K80'
gpuInit: Found compatible cuda device 2 'Tesla K80'
gpuInit: Found compatible cuda device 3 'Tesla K80'
gpuInit: Found compatible cuda device 4 'Tesla K80'
gpuInit: Selected device 0
Resource initialization completed at t[s]:      2.29
Run totals: 5 processes, 24 threads, 5 GPUs


Input parsed successfully to the following command list (including defaults):

basis kpoint-dependent
cache-projectors no
coords-type Lattice
core-overlap-check none
coulomb-interaction Slab 001
coulomb-truncation-embed 0.5 0.5 0.5
davidson-band-ratio 1.1
dump End State
dump-name NbTe2.$VAR
elec-cutoff 20
elec-eigen-algo Davidson
elec-ex-corr gga-PBE
elec-initial-charge 0.500000
elec-initial-magnetization 5.000000 no
elec-smearing Gauss 0.0073499
electronic-minimize  \
	dirUpdateScheme      FletcherReeves \
	linminMethod         DirUpdateRecommended \
	nIterations          200 \
	history              15 \
	knormThreshold       0 \
	energyDiffThreshold  1e-08 \
	nEnergyDiff          2 \
	alphaTstart          1 \
	alphaTmin            1e-10 \
	updateTestStepSize   yes \
	alphaTreduceFactor   0.1 \
	alphaTincreaseFactor 3 \
	nAlphaAdjustMax      3 \
	wolfeEnergy          0.0001 \
	wolfeGradient        0.9 \
	fdTest               no
exchange-regularization WignerSeitzTruncated
fluid LinearPCM 298.000000 1.013250
fluid-anion F- 1 MeanFieldLJ \
	epsBulk 1 \
	pMol 0 \
	epsInf 1 \
	Pvap 0 \
	sigmaBulk 0 \
	Rvdw 2.24877 \
	Res 0 \
	tauNuc 343133
fluid-cation Na+ 1 MeanFieldLJ \
	epsBulk 1 \
	pMol 0 \
	epsInf 1 \
	Pvap 0 \
	sigmaBulk 0 \
	Rvdw 2.19208 \
	Res 0 \
	tauNuc 343133
fluid-ex-corr lda-TF lda-PZ
fluid-gummel-loop 10 1.000000e-05
fluid-minimize  \
	dirUpdateScheme      PolakRibiere \
	linminMethod         DirUpdateRecommended \
	nIterations          400 \
	history              15 \
	knormThreshold       1e-11 \
	energyDiffThreshold  0 \
	nEnergyDiff          2 \
	alphaTstart          1 \
	alphaTmin            1e-10 \
	updateTestStepSize   yes \
	alphaTreduceFactor   0.1 \
	alphaTincreaseFactor 3 \
	nAlphaAdjustMax      6 \
	wolfeEnergy          0.0001 \
	wolfeGradient        0.9 \
	fdTest               no
fluid-solvent H2O 55.338 ScalarEOS \
	epsBulk 78.4 \
	pMol 0.92466 \
	epsInf 1.77 \
	Pvap 1.06736e-10 \
	sigmaBulk 4.62e-05 \
	Rvdw 2.61727 \
	Res 1.42 \
	tauNuc 343133 \
	poleEl 15 7 1
forces-output-coords Positions
initial-state NbTe2.$VAR
ion Ta   0.166669984000002   0.083329999999997   0.500000000000000 1
ion Ta   0.416670001999996   0.083329999999997   0.500000000000000 1
ion Ta   0.666670019999998   0.083329999999997   0.500000000000000 1
ion Ta   0.916670037999999   0.083329999999997   0.500000000000000 1
ion Ta   0.166669994000003   0.333330001000000   0.500000000000000 1
ion Ta   0.416669994000003   0.333330001000000   0.500000000000000 1
ion Ta   0.666670011999997   0.333330001000000   0.500000000000000 1
ion Ta   0.916669994000003   0.333330001000000   0.500000000000000 1
ion Ta   0.166669994000003   0.583329982000002   0.500000000000000 1
ion Ta   0.416669994000003   0.583329982000002   0.500000000000000 1
ion Ta   0.666669994000003   0.583329982000002   0.500000000000000 1
ion Ta   0.916670011000001   0.583329982000002   0.500000000000000 1
ion Ta   0.166669992999999   0.833329962999997   0.500000000000000 1
ion Ta   0.416669992999999   0.833329962999997   0.500000000000000 1
ion Ta   0.666670011000001   0.833329962999997   0.500000000000000 1
ion Ta   0.916670029000002   0.833329962999997   0.500000000000000 1
ion S   0.000000000000000   0.000000000000000   0.586319975000002 1
ion S   0.000000000000000   0.000000000000000   0.413679999000003 1
ion S   0.250000000000000   0.000000000000000   0.586319975000002 1
ion S   0.250000000000000   0.000000000000000   0.413679999000003 1
ion S   0.500000000000000   0.000000000000000   0.586319975000002 1
ion S   0.500000000000000   0.000000000000000   0.413679999000003 1
ion S   0.749999981999999   0.000000000000000   0.586319975000002 1
ion S   0.749999981999999   0.000000000000000   0.413679999000003 1
ion S   0.000000000999996   0.250000002000000   0.586319975000002 1
ion S   0.000000000999996   0.250000002000000   0.413679999000003 1
ion S   0.250000000999996   0.250000002000000   0.586319975000002 1
ion S   0.250000000999996   0.250000002000000   0.413679999000003 1
ion S   0.499999991999999   0.250000002000000   0.586319975000002 1
ion S   0.499999991999999   0.250000002000000   0.413679999000003 1
ion S   0.750000010000001   0.250000002000000   0.586319975000002 1
ion S   0.750000010000001   0.250000002000000   0.413679999000003 1
ion S   0.000000002000000   0.500000002999997   0.586319975000002 1
ion S   0.000000002000000   0.500000002999997   0.413679999000003 1
ion S   0.250000002000000   0.500000002999997   0.586319975000002 1
ion S   0.250000002000000   0.500000002999997   0.413679999000003 1
ion S   0.500000002000000   0.500000002999997   0.586319975000002 1
ion S   0.500000002000000   0.500000002999997   0.413679999000003 1
ion S   0.749999965999997   0.500000002999997   0.586319975000002 1
ion S   0.749999965999997   0.500000002999997   0.413679999000003 1
ion S   0.000000022000002   0.750000026000002   0.586319975000002 1
ion S   0.000000022000002   0.750000026000002   0.413679999000003 1
ion S   0.250000022000002   0.750000026000002   0.586319975000002 1
ion S   0.250000022000002   0.750000026000002   0.413679999000003 1
ion S   0.500000022000002   0.750000026000002   0.586319975000002 1
ion S   0.500000022000002   0.750000026000002   0.413679999000003 1
ion S   0.750000004000000   0.750000026000002   0.586319975000002 1
ion S   0.750000004000000   0.750000026000002   0.413679999000003 1
ion-species GBRV/$ID_pbe.uspp
ion-width Ecut
ionic-minimize  \
	dirUpdateScheme      L-BFGS \
	linminMethod         DirUpdateRecommended \
	nIterations          500 \
	history              15 \
	knormThreshold       0.0001 \
	energyDiffThreshold  1e-06 \
	nEnergyDiff          2 \
	alphaTstart          1 \
	alphaTmin            1e-10 \
	updateTestStepSize   yes \
	alphaTreduceFactor   0.1 \
	alphaTincreaseFactor 3 \
	nAlphaAdjustMax      3 \
	wolfeEnergy          0.0001 \
	wolfeGradient        0.9 \
	fdTest               no
kpoint   0.000000000000   0.000000000000   0.000000000000  1.00000000000000
kpoint-folding 4 4 1 
latt-move-scale 1 1 1
latt-scale 1.88973 1.88973 1.88973 
lattice Triclinic 13.3213 13.3213 18.1305 90 90 120
lattice-minimize  \
	dirUpdateScheme      L-BFGS \
	linminMethod         DirUpdateRecommended \
	nIterations          0 \
	history              15 \
	knormThreshold       0 \
	energyDiffThreshold  1e-06 \
	nEnergyDiff          2 \
	alphaTstart          1 \
	alphaTmin            1e-10 \
	updateTestStepSize   yes \
	alphaTreduceFactor   0.1 \
	alphaTincreaseFactor 3 \
	nAlphaAdjustMax      3 \
	wolfeEnergy          0.0001 \
	wolfeGradient        0.9 \
	fdTest               no
lcao-params -1 1e-06 0.0073499
pcm-variant CANDLE
spintype z-spin
subspace-rotation-factor 1 yes
symmetries automatic
symmetry-threshold 0.0001



---------- Setting up symmetries ----------

Found 24 point-group symmetries of the bravais lattice
Found 192 space-group symmetries with basis
Applied RMS atom displacement 6.87527e-05 bohrs to make symmetries exact.

---------- Initializing the Grid ----------
R = 
[    25.1736   -12.5868          0  ]
[          0     21.801          0  ]
[          0          0    34.2617  ]
unit cell volume = 18803.1
G =
[   0.249594   0.144103         -0  ]
[          0   0.288207          0  ]
[          0         -0   0.183388  ]
Minimum fftbox size, Smin = [  104  104  140  ]
Chosen fftbox size, S = [  108  108  140  ]

---------- Exchange Correlation functional ----------
Initalized PBE GGA exchange.
Initalized PBE GGA correlation.

---------- Setting up pseudopotentials ----------
Width of ionic core gaussian charges (only for fluid interactions / plotting) set to 0.397384

Reading pseudopotential file '/home/guoxy/vasp/jdftx-1.5.0/build/pseudopotentials/GBRV/ta_pbe.uspp':
  Title: Ta.  Created by USPP 7.3.6 on 14-9-2013
  Reference state energy: -70.583193.  13 valence electrons in orbitals:
    |500>  occupation: 2  eigenvalue: -2.682396
    |510>  occupation: 6  eigenvalue: -1.447928
    |520>  occupation: 3  eigenvalue: -0.131987
    |600>  occupation: 2  eigenvalue: -0.199982
    |610>  occupation: 0  eigenvalue: -0.051129
  lMax: 3  lLocal: 3  QijEcut: 5
  7 projectors sampled on a log grid with 667 points:
    l: 0  eig: -2.682397  rCut: 1.4
    l: 0  eig: -0.199983  rCut: 1.4
    l: 1  eig: -1.447928  rCut: 1.5
    l: 1  eig: -0.051130  rCut: 1.5
    l: 2  eig: -0.131987  rCut: 1.7
    l: 2  eig: 0.150000  rCut: 1.7
    l: 3  eig: 0.250000  rCut: 2.3
  Partial core density with radius 1.2
  Transforming core density to a uniform radial grid of dG=0.02 with 1498 points.
  Transforming local potential to a uniform radial grid of dG=0.02 with 1498 points.
  Transforming nonlocal projectors to a uniform radial grid of dG=0.02 with 432 points.
  Transforming density augmentations to a uniform radial grid of dG=0.02 with 1498 points.
  Transforming atomic orbitals to a uniform radial grid of dG=0.02 with 432 points.
  Core radius for overlap checks: 2.30 bohrs.

Reading pseudopotential file '/home/guoxy/vasp/jdftx-1.5.0/build/pseudopotentials/GBRV/s_pbe.uspp':
  Title: S.  Created by USPP 7.3.6 on 1-4-15
  Reference state energy: -11.898476.  6 valence electrons in orbitals:
    |300>  occupation: 2  eigenvalue: -0.634167
    |310>  occupation: 4  eigenvalue: -0.257568
  lMax: 2  lLocal: 3  QijEcut: 6
  6 projectors sampled on a log grid with 635 points:
    l: 0  eig: -0.634161  rCut: 1.5
    l: 0  eig: 1.500000  rCut: 1.5
    l: 1  eig: -0.257567  rCut: 1.5
    l: 1  eig: 1.500000  rCut: 1.5
    l: 2  eig: -1.000000  rCut: 1.5
    l: 2  eig: 1.500000  rCut: 1.5
  Partial core density with radius 1.15
  Transforming core density to a uniform radial grid of dG=0.02 with 1498 points.
  Transforming local potential to a uniform radial grid of dG=0.02 with 1498 points.
  Transforming nonlocal projectors to a uniform radial grid of dG=0.02 with 432 points.
  Transforming density augmentations to a uniform radial grid of dG=0.02 with 1498 points.
  Transforming atomic orbitals to a uniform radial grid of dG=0.02 with 432 points.
  Core radius for overlap checks: 1.50 bohrs.

Initialized 2 species with 48 total atoms.

Folded 1 k-points by 4x4x1 to 16 k-points.

---------- Setting up k-points, bands, fillings ----------
Adding inversion symmetry to k-mesh for non-inversion-symmetric unit cell.
Reduced to 4 k-points under symmetry. 
Computing the number of bands and number of electrons
Calculating initial fillings.
nElectrons: 400.500000   nBands: 336   nStates: 8

----- Setting up reduced wavefunction bases (one per k-point) -----
average nbasis = 80337.188 , ideal nbasis = 80328.404

---------- Setting up coulomb interaction ----------
Fluid mode embedding: using embedded box, but periodic Coulomb kernel.
(Fluid response is responsible for (approximate) separation between periodic images.)
Setting up double-sized grid for truncated Coulomb potentials:
R = 
[    25.1736   -12.5868          0  ]
[          0     21.801          0  ]
[          0          0    68.5234  ]
unit cell volume = 37606.3
G =
[   0.249594   0.144103         -0  ]
[          0   0.288207          0  ]
[          0         -0  0.0916941  ]
Chosen fftbox size, S = [  108  108  280  ]
Integer grid location selected as the embedding center:
   Grid: [  54  54  70  ]
   Lattice: [  0.5  0.5  0.5  ]
   Cartesian: [  6.2934  10.9005  17.1308  ]
Constructing Wigner-Seitz cell: 8 faces (6 quadrilaterals, 2 hexagons)
Range-separation parameter for embedded mesh potentials due to point charges: 0.624095 bohrs.

Initializing van der Waals corrections
	NOTE: vdW corrections apply only for interactions with fluid.
	Ta:  C6:  815.23 Eh-a0^6  R0: 3.326 a0 (WARNING: beyond Grimme's data set)
	 S:  C6:   96.61 Eh-a0^6  R0: 3.180 a0

---------- Setting up ewald sum ----------
Optimum gaussian width for ewald sums = 7.011160 bohr.
Real space sum over 605 unit cells with max indices [  5  5  2  ]
Reciprocal space sum over 7425 terms with max indices [  7  7  16  ]

---------- Allocating electronic variables ----------
Initializing wave functions:  linear combination of atomic orbitals
Ta pseudo-atom occupations:   s ( 2 2 )  p ( 6 0 )  d ( 3 )
S pseudo-atom occupations:   s ( 2 )  p ( 4 )
	FillingsUpdate:  mu: +0.700046335  nElectrons: 400.500000  magneticMoment: [ Abs: 1.84862  Tot: +1.76364 ]
LCAOMinimize: Iter:   0  F: -1225.1037102895179487  |grad|_K:  2.863e-02  alpha:  1.000e+00
	FillingsUpdate:  mu: -0.850673706  nElectrons: 400.500000  magneticMoment: [ Abs: 1.74852  Tot: +1.74396 ]
LCAOMinimize: Iter:   1  F: -1231.6872781357765234  |grad|_K:  1.450e-02  alpha:  4.762e-01  linmin:  1.490e-01  cgtest: -2.102e+00  t[s]:    187.00
LCAOMinimize: 	Bad step direction: g.d > 0.
LCAOMinimize: 	Undoing step.
LCAOMinimize: 	Step failed: resetting search direction.
	FillingsUpdate:  mu: -0.850673706  nElectrons: 400.500000  magneticMoment: [ Abs: 1.74852  Tot: +1.74396 ]
LCAOMinimize: Iter:   2  F: -1231.6872781357765234  |grad|_K:  1.450e-02  alpha:  0.000e+00
	FillingsUpdate:  mu: -0.402544973  nElectrons: 400.500000  magneticMoment: [ Abs: 2.43517  Tot: +2.42540 ]
LCAOMinimize: Iter:   3  F: -1258.1637662713085319  |grad|_K:  7.343e-03  alpha:  1.831e-01  linmin: -3.668e-01  cgtest:  9.904e-01  t[s]:    287.94
LCAOMinimize: Encountered beta<0, resetting CG.
LCAOMinimize: 	Predicted alpha/alphaT>3.000000, increasing alphaT to 5.491702e-01.
	FillingsUpdate:  mu: -0.325344990  nElectrons: 400.500000  magneticMoment: [ Abs: 2.26506  Tot: +2.24048 ]
LCAOMinimize: Iter:   4  F: -1263.1739721121568891  |grad|_K:  5.997e-03  alpha:  1.028e-01  linmin: -3.701e-01  cgtest:  8.488e-01  t[s]:    364.82
LCAOMinimize: Encountered beta<0, resetting CG.
LCAOMinimize: 	Predicted alpha/alphaT>3.000000, increasing alphaT to 3.083458e-01.
	FillingsUpdate:  mu: -0.086113760  nElectrons: 400.500000  magneticMoment: [ Abs: 1.77471  Tot: +1.73119 ]
LCAOMinimize: Iter:   5  F: -1268.2818314664586978  |grad|_K:  1.101e-03  alpha:  2.673e-01  linmin:  4.371e-01  cgtest: -7.208e-01  t[s]:    441.76
LCAOMinimize: 	Bad step direction: g.d > 0.
LCAOMinimize: 	Undoing step.
LCAOMinimize: 	Step failed: resetting search direction.
	FillingsUpdate:  mu: -0.086113760  nElectrons: 400.500000  magneticMoment: [ Abs: 1.77471  Tot: +1.73119 ]
LCAOMinimize: Iter:   6  F: -1268.2818314664586978  |grad|_K:  1.101e-03  alpha:  0.000e+00
	FillingsUpdate:  mu: -0.136692682  nElectrons: 400.500000  magneticMoment: [ Abs: 1.69300  Tot: +1.64498 ]
LCAOMinimize: Iter:   7  F: -1268.3791098980543666  |grad|_K:  6.375e-05  alpha:  1.855e-01  linmin: -9.019e-02  cgtest:  1.874e-01  t[s]:    542.50
LCAOMinimize: Encountered beta<0, resetting CG.
LCAOMinimize: 	Predicted alpha/alphaT>3.000000, increasing alphaT to 5.564163e-01.
	FillingsUpdate:  mu: -0.137698477  nElectrons: 400.500000  magneticMoment: [ Abs: 1.15718  Tot: +1.10312 ]
LCAOMinimize: Iter:   8  F: -1268.3806871104879974  |grad|_K:  3.949e-05  alpha:  8.558e-01  linmin:  1.830e-03  cgtest: -1.716e-02  t[s]:    619.27
	FillingsUpdate:  mu: -0.135618424  nElectrons: 400.500000  magneticMoment: [ Abs: 0.98006  Tot: +0.92731 ]
LCAOMinimize: Iter:   9  F: -1268.3808725205931296  |grad|_K:  1.786e-05  alpha:  2.591e-01  linmin: -4.313e-03  cgtest:  4.960e-02  t[s]:    678.74
LCAOMinimize: 	Predicted alpha/alphaT>3.000000, increasing alphaT to 7.773126e-01.
	FillingsUpdate:  mu: -0.136156358  nElectrons: 400.500000  magneticMoment: [ Abs: 0.12462  Tot: +0.08170 ]
LCAOMinimize: Iter:  10  F: -1268.3811333297799138  |grad|_K:  6.131e-06  alpha:  1.781e+00  linmin:  5.284e-04  cgtest: -1.232e-01  t[s]:    755.69
	FillingsUpdate:  mu: -0.136004879  nElectrons: 400.500000  magneticMoment: [ Abs: 0.01989  Tot: -0.00365 ]
LCAOMinimize: Iter:  11  F: -1268.3811477578142330  |grad|_K:  2.952e-06  alpha:  8.446e-01  linmin: -4.136e-04  cgtest:  2.692e-03  t[s]:    814.87
	FillingsUpdate:  mu: -0.136138450  nElectrons: 400.500000  magneticMoment: [ Abs: 0.01394  Tot: -0.00814 ]
LCAOMinimize: Iter:  12  F: -1268.3811486829943078  |grad|_K:  9.050e-07  alpha:  2.339e-01  linmin:  1.074e-03  cgtest: -4.587e-03  t[s]:    874.07
LCAOMinimize: 	Predicted alpha/alphaT>3.000000, increasing alphaT to 7.016274e-01.
	FillingsUpdate:  mu: -0.136090257  nElectrons: 400.500000  magneticMoment: [ Abs: 0.00627  Tot: -0.00541 ]
LCAOMinimize: Iter:  13  F: -1268.3811489906640873  |grad|_K:  1.905e-07  alpha:  8.276e-01  linmin: -1.364e-04  cgtest:  6.499e-03  t[s]:    950.90
LCAOMinimize: Converged (|Delta F|<1.000000e-06 for 2 iters).
----- createFluidSolver() ----- (Fluid-side solver setup)
   Initializing fluid molecule 'H2O'
     Initializing site 'O'
       Electron density: proportional to exp(-r/0.36935)*erfc((r-0.51523)/0.36823) with norm 6.826
       Charge density: gaussian nuclear width 0.478731 with net site charge 0.826
       Polarizability: cuspless exponential with width 0.32 and norm 3.73
       Hard sphere radius: 2.57003 bohrs
       Positions in reference frame:
         [ +0.000000 +0.000000 +0.000000 ]
     Initializing site 'H'
       Electron density: proportional to exp(-r/0.34641)*erfc((r-0)/0.390882) with norm 0.587
       Charge density: gaussian nuclear width 0.377945 with net site charge -0.413
       Polarizability: cuspless exponential with width 0.39 and norm 3.3
       Positions in reference frame:
         [ +0.000000 -1.441945 +1.122523 ]
         [ +0.000000 +1.441945 +1.122523 ]
     Net charge: 0   dipole magnitude: 0.927204
     Initializing spherical shell mfKernel with radius 2.61727 Bohr
     deltaS corrections:
       site 'O': -7.54299
       site 'H': -6.83917
   Initializing fluid molecule 'Na+'
     Initializing site 'Na'
       Electron density: proportional to exp(-r/0.19682)*erfc((r-0.71491)/0.41314) with norm 8.1383
       Charge density: gaussian nuclear width 0.365347 with net site charge -1
       Hard sphere radius: 1.86327 bohrs
       Positions in reference frame:
         [ +0.000000 +0.000000 +0.000000 ]
     Net charge: -1   dipole magnitude: 0
     Initializing gaussian mfKernel with width: 1.55004 Bohr
     deltaS corrections:
       site 'Na': -22.3555
   Initializing fluid molecule 'F-'
     Initializing site 'F'
       Electron density: proportional to exp(-r/0.38886)*erfc((r-0)/0.438782) with norm 8
       Charge density: gaussian nuclear width 0.374796 with net site charge 1
       Hard sphere radius: 2.39995 bohrs
       Positions in reference frame:
         [ +0.000000 +0.000000 +0.000000 ]
     Net charge: 1   dipole magnitude: 0
     Initializing gaussian mfKernel with width: 1.59012 Bohr
     deltaS corrections:
       site 'F': -9.04335

Correction to mu due to finite nuclear width = -0.0105536
   Cavity determined by nc: 0.00142 and sigma: 0.707107
   Nonlocal vdW cavity from gaussian model electron density with norm = 8 and sigma = 0.993594 bohr
   Charge asymmetry in cavity with sensitivity pCavity = 36.5 e-bohr/Eh
   Electrostatic cavity expanded by eta = 1.46 bohrs
   Weighted density cavitation model constrained by Nbulk: 0.0049383 bohr^-3, Pvap: 3.14029 kPa, Rvdw: 2.61727 bohr and sigmaBulk: 4.62e-05 Eh/bohr^2 at T: 298 K.
   Weighted density dispersion model using vdW pair potentials with single solvent site with sqrtC6eff: 0.77 SI.


---- Citations for features of the code used in this run ----

   Software package:
      R. Sundararaman, K. Letchworth-Weaver, K.A. Schwarz, D. Gunceler, Y. Ozhabes and T.A. Arias, 'JDFTx: software for joint density-functional theory', SoftwareX 6, 278 (2017)

   gga-PBE exchange-correlation functional:
      J.P. Perdew, K. Burke and M. Ernzerhof, Phys. Rev. Lett. 77, 3865 (1996)

   Pseudopotentials:
      KF Garrity, JW Bennett, KM Rabe and D Vanderbilt, Comput. Mater. Sci. 81, 446 (2014)

   Truncated Coulomb potentials:
      R. Sundararaman and T.A. Arias, Phys. Rev. B 87, 165122 (2013)

   Van der Waals correction pair-potentials:
      S. Grimme, J. Comput. Chem. 27, 1787 (2006)

   Charge-asymmetric nonlocally-determined local-electric (CANDLE) solvation model:
      R. Sundararaman and W.A. Goddard III, J. Chem. Phys. 142, 064107 (2015)

   Total energy minimization with Auxiliary Hamiltonian:
      C. Freysoldt, S. Boeck, and J. Neugebauer, Phys. Rev. B 79, 241103(R) (2009)

This list may not be complete. Please suggest additional citations or
report any other bugs at https://github.com/shankar1729/jdftx/issues

Initialization completed successfully at t[s]:    960.84

Fluid solver invoked on fresh (partially random / LCAO) wavefunctions
Running a vacuum solve first:

-------- Initial electronic minimization -----------
	FillingsUpdate:  mu: -0.136090257  nElectrons: 400.500000  magneticMoment: [ Abs: 0.00627  Tot: -0.00541 ]
ElecMinimize: Iter:   0  F: -1268.381148990652719  |grad|_K:  8.554e-05  alpha:  1.000e+00
	FillingsUpdate:  mu: -0.038111183  nElectrons: 400.500000  magneticMoment: [ Abs: 0.00392  Tot: -0.00342 ]
	SubspaceRotationAdjust: set factor to 0.962
ElecMinimize: Iter:   1  F: -1269.645848050941595  |grad|_K:  4.805e-05  alpha:  8.019e-01  linmin: -2.871e-05  t[s]:   1099.26
	FillingsUpdate:  mu: -0.096395129  nElectrons: 400.500000  magneticMoment: [ Abs: 0.00314  Tot: -0.00276 ]
	SubspaceRotationAdjust: set factor to 0.629
ElecMinimize: Iter:   2  F: -1269.837862349050965  |grad|_K:  3.315e-05  alpha:  4.131e-01  linmin:  2.627e-04  t[s]:   1184.41
	FillingsUpdate:  mu: -0.071096547  nElectrons: 400.500000  magneticMoment: [ Abs: 0.00233  Tot: -0.00202 ]
	SubspaceRotationAdjust: set factor to 0.481
ElecMinimize: Iter:   3  F: -1269.943969751026088  |grad|_K:  1.421e-05  alpha:  4.600e-01  linmin:  1.613e-04  t[s]:   1269.65
	FillingsUpdate:  mu: -0.075313915  nElectrons: 400.500000  magneticMoment: [ Abs: 0.00193  Tot: -0.00164 ]
	SubspaceRotationAdjust: set factor to 0.538
ElecMinimize: Iter:   4  F: -1269.970638123792924  |grad|_K:  8.830e-06  alpha:  6.249e-01  linmin:  2.145e-05  t[s]:   1354.86
	FillingsUpdate:  mu: -0.079972309  nElectrons: 400.500000  magneticMoment: [ Abs: 0.00162  Tot: -0.00136 ]
	SubspaceRotationAdjust: set factor to 0.611
ElecMinimize: Iter:   5  F: -1269.981386563717479  |grad|_K:  5.318e-06  alpha:  6.402e-01  linmin:  2.061e-05  t[s]:   1440.08
	FillingsUpdate:  mu: -0.076618635  nElectrons: 400.500000  magneticMoment: [ Abs: 0.00132  Tot: -0.00111 ]
	SubspaceRotationAdjust: set factor to 0.691
ElecMinimize: Iter:   6  F: -1269.985489414417771  |grad|_K:  3.342e-06  alpha:  6.734e-01  linmin:  2.371e-05  t[s]:   1525.47
	FillingsUpdate:  mu: -0.077895757  nElectrons: 400.500000  magneticMoment: [ Abs: 0.00106  Tot: -0.00090 ]
	SubspaceRotationAdjust: set factor to 0.862
ElecMinimize: Iter:   7  F: -1269.986931766949738  |grad|_K:  1.947e-06  alpha:  6.006e-01  linmin:  4.663e-06  t[s]:   1610.71
	FillingsUpdate:  mu: -0.078378497  nElectrons: 400.500000  magneticMoment: [ Abs: 0.00085  Tot: -0.00073 ]
	SubspaceRotationAdjust: set factor to 0.986
ElecMinimize: Iter:   8  F: -1269.987388115381918  |grad|_K:  1.083e-06  alpha:  5.573e-01  linmin:  3.215e-06  t[s]:   1696.00
	FillingsUpdate:  mu: -0.077734278  nElectrons: 400.500000  magneticMoment: [ Abs: 0.00065  Tot: -0.00057 ]
	SubspaceRotationAdjust: set factor to 0.916
ElecMinimize: Iter:   9  F: -1269.987533393230933  |grad|_K:  7.465e-07  alpha:  5.737e-01  linmin:  3.022e-06  t[s]:   1781.17
	FillingsUpdate:  mu: -0.078498359  nElectrons: 400.500000  magneticMoment: [ Abs: 0.00050  Tot: -0.00044 ]
	SubspaceRotationAdjust: set factor to 0.711
ElecMinimize: Iter:  10  F: -1269.987583302239727  |grad|_K:  4.383e-07  alpha:  4.143e-01  linmin:  4.419e-07  t[s]:   1866.50
	FillingsUpdate:  mu: -0.078234681  nElectrons: 400.500000  magneticMoment: [ Abs: 0.00035  Tot: -0.00031 ]
	SubspaceRotationAdjust: set factor to 0.699
ElecMinimize: Iter:  11  F: -1269.987606545481185  |grad|_K:  2.703e-07  alpha:  5.597e-01  linmin:  1.740e-06  t[s]:   1951.78
	FillingsUpdate:  mu: -0.078265526  nElectrons: 400.500000  magneticMoment: [ Abs: 0.00026  Tot: -0.00023 ]
	SubspaceRotationAdjust: set factor to 0.863
ElecMinimize: Iter:  12  F: -1269.987614896871492  |grad|_K:  1.723e-07  alpha:  5.293e-01  linmin:  6.536e-07  t[s]:   2036.91
	FillingsUpdate:  mu: -0.078333364  nElectrons: 400.500000  magneticMoment: [ Abs: 0.00019  Tot: -0.00017 ]
	SubspaceRotationAdjust: set factor to 0.919
ElecMinimize: Iter:  13  F: -1269.987618274119768  |grad|_K:  1.093e-07  alpha:  5.260e-01  linmin:  4.053e-07  t[s]:   2122.19
	FillingsUpdate:  mu: -0.078240909  nElectrons: 400.500000  magneticMoment: [ Abs: 0.00014  Tot: -0.00013 ]
	SubspaceRotationAdjust: set factor to 0.851
ElecMinimize: Iter:  14  F: -1269.987619532322469  |grad|_K:  6.788e-08  alpha:  4.864e-01  linmin:  1.429e-07  t[s]:   2207.49
	FillingsUpdate:  mu: -0.078274791  nElectrons: 400.500000  magneticMoment: [ Abs: 0.00010  Tot: -0.00009 ]
	SubspaceRotationAdjust: set factor to 0.812
ElecMinimize: Iter:  15  F: -1269.987620040540833  |grad|_K:  3.953e-08  alpha:  5.097e-01  linmin:  8.879e-08  t[s]:   2292.72
	FillingsUpdate:  mu: -0.078264939  nElectrons: 400.500000  magneticMoment: [ Abs: 0.00007  Tot: -0.00006 ]
	SubspaceRotationAdjust: set factor to 0.903
ElecMinimize: Iter:  16  F: -1269.987620226020454  |grad|_K:  2.671e-08  alpha:  5.485e-01  linmin:  8.246e-08  t[s]:   2377.95
	FillingsUpdate:  mu: -0.078261203  nElectrons: 400.500000  magneticMoment: [ Abs: 0.00005  Tot: -0.00004 ]
	SubspaceRotationAdjust: set factor to 1.03
ElecMinimize: Iter:  17  F: -1269.987620307593033  |grad|_K:  1.681e-08  alpha:  5.287e-01  linmin:  2.680e-08  t[s]:   2463.19
	FillingsUpdate:  mu: -0.078269437  nElectrons: 400.500000  magneticMoment: [ Abs: 0.00003  Tot: -0.00003 ]
	SubspaceRotationAdjust: set factor to 1.08
ElecMinimize: Iter:  18  F: -1269.987620341011052  |grad|_K:  1.140e-08  alpha:  5.467e-01  linmin:  1.859e-08  t[s]:   2548.59
	FillingsUpdate:  mu: -0.078261222  nElectrons: 400.500000  magneticMoment: [ Abs: 0.00002  Tot: -0.00002 ]
	SubspaceRotationAdjust: set factor to 0.934
ElecMinimize: Iter:  19  F: -1269.987620353985449  |grad|_K:  7.488e-09  alpha:  4.606e-01  linmin: -4.139e-08  t[s]:   2633.76
	FillingsUpdate:  mu: -0.078267103  nElectrons: 400.500000  magneticMoment: [ Abs: 0.00001  Tot: -0.00001 ]
	SubspaceRotationAdjust: set factor to 0.772
ElecMinimize: Iter:  20  F: -1269.987620359986977  |grad|_K:  5.044e-09  alpha:  4.941e-01  linmin:  5.277e-08  t[s]:   2718.94
	FillingsUpdate:  mu: -0.078264285  nElectrons: 400.500000  magneticMoment: [ Abs: 0.00001  Tot: -0.00001 ]
	SubspaceRotationAdjust: set factor to 0.796
ElecMinimize: Iter:  21  F: -1269.987620362852567  |grad|_K:  3.483e-09  alpha:  5.234e-01  linmin: -9.026e-08  t[s]:   2804.40
ElecMinimize: Converged (|Delta F|<1.000000e-08 for 2 iters).
Setting wave functions to eigenvectors of Hamiltonian
Vacuum energy after initial minimize, F = -1269.987620362852567

	Linear fluid (dielectric constant: 78.4, screening length: 5.74355 Bohr) occupying 0.756799 of unit cell:	Completed after 15 iterations at t[s]:   2822.81

-------- Electronic minimization -----------
	Linear fluid (dielectric constant: 78.4, screening length: 5.74355 Bohr) occupying 0.756799 of unit cell:	Completed after 0 iterations at t[s]:   2844.82
	FillingsUpdate:  mu: -0.199667622  nElectrons: 400.500000  magneticMoment: [ Abs: 0.00001  Tot: -0.00000 ]
ElecMinimize: Iter:   0  F: -1270.029489528644035  |grad|_K:  9.536e-07  alpha:  1.000e+00
	Linear fluid (dielectric constant: 78.4, screening length: 5.74355 Bohr) occupying 0.757186 of unit cell:	Completed after 9 iterations at t[s]:   2912.82
	Linear fluid (dielectric constant: 78.4, screening length: 5.74355 Bohr) occupying 0.757026 of unit cell:	Completed after 5 iterations at t[s]:   2942.38
	FillingsUpdate:  mu: -0.201151086  nElectrons: 400.500000  magneticMoment: [ Abs: 0.00001  Tot: -0.00000 ]
	SubspaceRotationAdjust: set factor to 0.511
ElecMinimize: Iter:   1  F: -1270.029602551416701  |grad|_K:  8.336e-07  alpha:  5.771e-01  linmin:  3.787e-07  t[s]:   2980.64
	Linear fluid (dielectric constant: 78.4, screening length: 5.74355 Bohr) occupying 0.757351 of unit cell:	Completed after 8 iterations at t[s]:   3007.57
	Linear fluid (dielectric constant: 78.4, screening length: 5.74355 Bohr) occupying 0.757315 of unit cell:	Completed after 2 iterations at t[s]:   3036.78
	FillingsUpdate:  mu: -0.199941196  nElectrons: 400.500000  magneticMoment: [ Abs: 0.00001  Tot: -0.00000 ]
	SubspaceRotationAdjust: set factor to 0.426
ElecMinimize: Iter:   2  F: -1270.029679031054229  |grad|_K:  1.974e-07  alpha:  5.128e-01  linmin: -1.604e-06  t[s]:   3074.32
	Linear fluid (dielectric constant: 78.4, screening length: 5.74355 Bohr) occupying 0.757337 of unit cell:	Completed after 2 iterations at t[s]:   3100.83
	Linear fluid (dielectric constant: 78.4, screening length: 5.74355 Bohr) occupying 0.757348 of unit cell:	Completed after 2 iterations at t[s]:   3128.61
	FillingsUpdate:  mu: -0.199918140  nElectrons: 400.500000  magneticMoment: [ Abs: 0.00000  Tot: -0.00000 ]
	SubspaceRotationAdjust: set factor to 0.432
ElecMinimize: Iter:   3  F: -1270.029685824407807  |grad|_K:  1.218e-07  alpha:  8.000e-01  linmin:  3.933e-07  t[s]:   3166.12
	Linear fluid (dielectric constant: 78.4, screening length: 5.74355 Bohr) occupying 0.757365 of unit cell:	Completed after 3 iterations at t[s]:   3192.73
	Linear fluid (dielectric constant: 78.4, screening length: 5.74355 Bohr) occupying 0.757362 of unit cell:	Completed after 0 iterations at t[s]:   3220.49
	FillingsUpdate:  mu: -0.199852566  nElectrons: 400.500000  magneticMoment: [ Abs: 0.00000  Tot: -0.00000 ]
	SubspaceRotationAdjust: set factor to 0.462
ElecMinimize: Iter:   4  F: -1270.029687970722762  |grad|_K:  7.926e-08  alpha:  6.712e-01  linmin:  1.947e-06  t[s]:   3257.31
	Linear fluid (dielectric constant: 78.4, screening length: 5.74355 Bohr) occupying 0.757368 of unit cell:	Completed after 0 iterations at t[s]:   3283.64
	Linear fluid (dielectric constant: 78.4, screening length: 5.74355 Bohr) occupying 0.757368 of unit cell:	Completed after 0 iterations at t[s]:   3310.47
	FillingsUpdate:  mu: -0.199851952  nElectrons: 400.500000  magneticMoment: [ Abs: 0.00000  Tot: -0.00000 ]
	SubspaceRotationAdjust: set factor to 0.574
ElecMinimize: Iter:   5  F: -1270.029688869669144  |grad|_K:  5.139e-08  alpha:  6.628e-01  linmin:  3.856e-08  t[s]:   3347.28
	Linear fluid (dielectric constant: 78.4, screening length: 5.74355 Bohr) occupying 0.757368 of unit cell:	Completed after 2 iterations at t[s]:   3373.81
	Linear fluid (dielectric constant: 78.4, screening length: 5.74355 Bohr) occupying 0.757368 of unit cell:	Completed after 0 iterations at t[s]:   3401.40
	FillingsUpdate:  mu: -0.199935976  nElectrons: 400.500000  magneticMoment: [ Abs: 0.00000  Tot: -0.00000 ]
	SubspaceRotationAdjust: set factor to 0.53
ElecMinimize: Iter:   6  F: -1270.029689035631691  |grad|_K:  4.083e-08  alpha:  3.746e-01  linmin: -8.762e-07  t[s]:   3438.26
	Linear fluid (dielectric constant: 78.4, screening length: 5.74355 Bohr) occupying 0.757366 of unit cell:	Completed after 0 iterations at t[s]:   3464.56
	Linear fluid (dielectric constant: 78.4, screening length: 5.74355 Bohr) occupying 0.757366 of unit cell:	Completed after 2 iterations at t[s]:   3491.58
	FillingsUpdate:  mu: -0.199888668  nElectrons: 400.500000  magneticMoment: [ Abs: 0.00000  Tot: -0.00000 ]
	SubspaceRotationAdjust: set factor to 0.464
ElecMinimize: Iter:   7  F: -1270.029689105443367  |grad|_K:  3.475e-08  alpha:  5.199e-01  linmin:  2.014e-05  t[s]:   3529.08
	Linear fluid (dielectric constant: 78.4, screening length: 5.74355 Bohr) occupying 0.757363 of unit cell:	Completed after 0 iterations at t[s]:   3555.47
	Linear fluid (dielectric constant: 78.4, screening length: 5.74355 Bohr) occupying 0.757364 of unit cell:	Completed after 0 iterations at t[s]:   3582.24
	FillingsUpdate:  mu: -0.199888694  nElectrons: 400.500000  magneticMoment: [ Abs: 0.00000  Tot: -0.00000 ]
	SubspaceRotationAdjust: set factor to 0.529
ElecMinimize: Iter:   8  F: -1270.029689149667092  |grad|_K:  2.259e-08  alpha:  3.006e-01  linmin: -4.179e-10  t[s]:   3619.11
	Linear fluid (dielectric constant: 78.4, screening length: 5.74355 Bohr) occupying 0.757363 of unit cell:	Completed after 0 iterations at t[s]:   3645.41
	Linear fluid (dielectric constant: 78.4, screening length: 5.74355 Bohr) occupying 0.757362 of unit cell:	Completed after 0 iterations at t[s]:   3672.17
	FillingsUpdate:  mu: -0.199888396  nElectrons: 400.500000  magneticMoment: [ Abs: 0.00000  Tot: -0.00000 ]
	SubspaceRotationAdjust: set factor to 0.63
ElecMinimize: Iter:   9  F: -1270.029689187604390  |grad|_K:  1.803e-08  alpha:  3.434e-01  linmin:  1.765e-08  t[s]:   3708.99
	Linear fluid (dielectric constant: 78.4, screening length: 5.74355 Bohr) occupying 0.757361 of unit cell:	Completed after 0 iterations at t[s]:   3735.24
	Linear fluid (dielectric constant: 78.4, screening length: 5.74355 Bohr) occupying 0.757361 of unit cell:	Completed after 0 iterations at t[s]:   3762.17
	FillingsUpdate:  mu: -0.199887756  nElectrons: 400.500000  magneticMoment: [ Abs: 0.00000  Tot: -0.00000 ]
	SubspaceRotationAdjust: set factor to 0.782
ElecMinimize: Iter:  10  F: -1270.029689217673649  |grad|_K:  1.561e-08  alpha:  4.283e-01  linmin:  5.978e-08  t[s]:   3799.02
	Linear fluid (dielectric constant: 78.4, screening length: 5.74355 Bohr) occupying 0.757359 of unit cell:	Completed after 0 iterations at t[s]:   3825.31
	Linear fluid (dielectric constant: 78.4, screening length: 5.74355 Bohr) occupying 0.757359 of unit cell:	Completed after 0 iterations at t[s]:   3852.19
	FillingsUpdate:  mu: -0.199887002  nElectrons: 400.500000  magneticMoment: [ Abs: 0.00000  Tot: -0.00000 ]
	SubspaceRotationAdjust: set factor to 0.971
ElecMinimize: Iter:  11  F: -1270.029689238277570  |grad|_K:  1.369e-08  alpha:  3.916e-01  linmin: -4.717e-09  t[s]:   3889.25
	Linear fluid (dielectric constant: 78.4, screening length: 5.74355 Bohr) occupying 0.757359 of unit cell:	Completed after 2 iterations at t[s]:   3915.84
	Linear fluid (dielectric constant: 78.4, screening length: 5.74355 Bohr) occupying 0.757359 of unit cell:	Completed after 0 iterations at t[s]:   3943.42
ElecMinimize: 	Step increased F by 6.889536e-08, reducing alpha to 2.998502e-03.
	Linear fluid (dielectric constant: 78.4, screening length: 5.74355 Bohr) occupying 0.757359 of unit cell:	Completed after 0 iterations at t[s]:   4001.02
ElecMinimize: 	Step increased F by 6.189066e-08, reducing alpha to 2.998502e-04.
	Linear fluid (dielectric constant: 78.4, screening length: 5.74355 Bohr) occupying 0.757359 of unit cell:	Completed after 0 iterations at t[s]:   4058.41
ElecMinimize: 	Step increased F by 6.128403e-08, reducing alpha to 2.998502e-05.
ElecMinimize: 	Step failed to reduce F after 3 attempts. Quitting step.
ElecMinimize: 	Undoing step.
	Linear fluid (dielectric constant: 78.4, screening length: 5.74355 Bohr) occupying 0.757359 of unit cell:	Completed after 0 iterations at t[s]:   4115.95
ElecMinimize: 	Step failed: resetting search direction.
	FillingsUpdate:  mu: -0.199926088  nElectrons: 400.500000  magneticMoment: [ Abs: 0.00000  Tot: -0.00000 ]
	SubspaceRotationAdjust: set factor to 0.653
ElecMinimize: Iter:  12  F: -1270.029689177037653  |grad|_K:  4.901e-08  alpha:  2.999e-05
	Linear fluid (dielectric constant: 78.4, screening length: 5.74355 Bohr) occupying 0.757361 of unit cell:	Completed after 2 iterations at t[s]:   4178.98
	Linear fluid (dielectric constant: 78.4, screening length: 5.74355 Bohr) occupying 0.757360 of unit cell:	Completed after 2 iterations at t[s]:   4206.76
	FillingsUpdate:  mu: -0.199863803  nElectrons: 400.500000  magneticMoment: [ Abs: 0.00000  Tot: -0.00000 ]
	SubspaceRotationAdjust: set factor to 0.265
ElecMinimize: Iter:  13  F: -1270.029689215153894  |grad|_K:  1.812e-08  alpha:  1.560e-01  linmin:  1.483e-04  t[s]:   4244.21
	Linear fluid (dielectric constant: 78.4, screening length: 5.74355 Bohr) occupying 0.757360 of unit cell:	Completed after 0 iterations at t[s]:   4270.51
ElecMinimize: 	Predicted alpha/alphaT>3.000000, increasing alphaT to 4.680769e-01.
	Linear fluid (dielectric constant: 78.4, screening length: 5.74355 Bohr) occupying 0.757360 of unit cell:	Completed after 0 iterations at t[s]:   4297.06
	Linear fluid (dielectric constant: 78.4, screening length: 5.74355 Bohr) occupying 0.757360 of unit cell:	Completed after 1 iterations at t[s]:   4324.14
	FillingsUpdate:  mu: -0.199885692  nElectrons: 400.500000  magneticMoment: [ Abs: 0.00000  Tot: -0.00000 ]
	SubspaceRotationAdjust: set factor to 0.247
ElecMinimize: Iter:  14  F: -1270.029689215701183  |grad|_K:  1.533e-08  alpha:  9.859e-01  linmin:  2.229e-05  t[s]:   4361.53
	Linear fluid (dielectric constant: 78.4, screening length: 5.74355 Bohr) occupying 0.757360 of unit cell:	Completed after 2 iterations at t[s]:   4388.12
	Linear fluid (dielectric constant: 78.4, screening length: 5.74355 Bohr) occupying 0.757360 of unit cell:	Completed after 0 iterations at t[s]:   4415.75
ElecMinimize: 	Step increased F by 2.396155e-08, reducing alpha to 1.881708e-02.
	Linear fluid (dielectric constant: 78.4, screening length: 5.74355 Bohr) occupying 0.757360 of unit cell:	Completed after 0 iterations at t[s]:   4473.31
ElecMinimize: 	Step increased F by 2.273259e-08, reducing alpha to 1.881708e-03.
	Linear fluid (dielectric constant: 78.4, screening length: 5.74355 Bohr) occupying 0.757360 of unit cell:	Completed after 0 iterations at t[s]:   4531.29
ElecMinimize: 	Step increased F by 2.295292e-08, reducing alpha to 1.881708e-04.
ElecMinimize: 	Step failed to reduce F after 3 attempts. Quitting step.
ElecMinimize: 	Undoing step.
	Linear fluid (dielectric constant: 78.4, screening length: 5.74355 Bohr) occupying 0.757360 of unit cell:	Completed after 0 iterations at t[s]:   4588.71
ElecMinimize: 	Step failed: resetting search direction.
	FillingsUpdate:  mu: -0.199923395  nElectrons: 400.500000  magneticMoment: [ Abs: 0.00000  Tot: -0.00000 ]
	SubspaceRotationAdjust: set factor to 0.252
ElecMinimize: Iter:  15  F: -1270.029689192737123  |grad|_K:  2.320e-08  alpha:  1.882e-04
	Linear fluid (dielectric constant: 78.4, screening length: 5.74355 Bohr) occupying 0.757360 of unit cell:	Completed after 2 iterations at t[s]:   4651.73
	Linear fluid (dielectric constant: 78.4, screening length: 5.74355 Bohr) occupying 0.757360 of unit cell:	Completed after 0 iterations at t[s]:   4679.30
	FillingsUpdate:  mu: -0.199881870  nElectrons: 400.500000  magneticMoment: [ Abs: 0.00000  Tot: -0.00000 ]
	SubspaceRotationAdjust: set factor to 0.165
ElecMinimize: Iter:  16  F: -1270.029689242252743  |grad|_K:  1.049e-08  alpha:  3.787e-01  linmin:  2.335e-04  t[s]:   4716.16
	Linear fluid (dielectric constant: 78.4, screening length: 5.74355 Bohr) occupying 0.757360 of unit cell:	Completed after 0 iterations at t[s]:   4742.40
	Linear fluid (dielectric constant: 78.4, screening length: 5.74355 Bohr) occupying 0.757360 of unit cell:	Completed after 0 iterations at t[s]:   4769.31
ElecMinimize: 	Step increased F by 5.075208e-09, reducing alpha to 5.169071e-02.
	Linear fluid (dielectric constant: 78.4, screening length: 5.74355 Bohr) occupying 0.757360 of unit cell:	Completed after 0 iterations at t[s]:   4827.05
ElecMinimize: 	Step increased F by 1.086528e-08, reducing alpha to 5.169071e-03.
	Linear fluid (dielectric constant: 78.4, screening length: 5.74355 Bohr) occupying 0.757360 of unit cell:	Completed after 0 iterations at t[s]:   4884.56
ElecMinimize: 	Step increased F by 1.221929e-08, reducing alpha to 5.169071e-04.
ElecMinimize: 	Step failed to reduce F after 3 attempts. Quitting step.
ElecMinimize: 	Undoing step.
	Linear fluid (dielectric constant: 78.4, screening length: 5.74355 Bohr) occupying 0.757360 of unit cell:	Completed after 0 iterations at t[s]:   4942.17
ElecMinimize: 	Step failed: resetting search direction.
	FillingsUpdate:  mu: -0.199882486  nElectrons: 400.500000  magneticMoment: [ Abs: 0.00000  Tot: -0.00000 ]
	SubspaceRotationAdjust: set factor to 0.194
ElecMinimize: Iter:  17  F: -1270.029689229984797  |grad|_K:  9.510e-09  alpha:  5.169e-04
	Linear fluid (dielectric constant: 78.4, screening length: 5.74355 Bohr) occupying 0.757360 of unit cell:	Completed after 0 iterations at t[s]:   5005.16
	Linear fluid (dielectric constant: 78.4, screening length: 5.74355 Bohr) occupying 0.757360 of unit cell:	Completed after 0 iterations at t[s]:   5032.18
	FillingsUpdate:  mu: -0.199882488  nElectrons: 400.500000  magneticMoment: [ Abs: 0.00000  Tot: -0.00000 ]
	SubspaceRotationAdjust: set factor to 0.237
ElecMinimize: Iter:  18  F: -1270.029689237225284  |grad|_K:  6.160e-09  alpha:  3.688e-01  linmin:  1.783e-06  t[s]:   5068.92
	Linear fluid (dielectric constant: 78.4, screening length: 5.74355 Bohr) occupying 0.757360 of unit cell:	Completed after 0 iterations at t[s]:   5095.32
	Linear fluid (dielectric constant: 78.4, screening length: 5.74355 Bohr) occupying 0.757360 of unit cell:	Completed after 0 iterations at t[s]:   5122.18
	FillingsUpdate:  mu: -0.199882380  nElectrons: 400.500000  magneticMoment: [ Abs: 0.00000  Tot: -0.00000 ]
	SubspaceRotationAdjust: set factor to 0.31
ElecMinimize: Iter:  19  F: -1270.029689244693827  |grad|_K:  5.276e-09  alpha:  8.739e-01  linmin: -4.322e-06  t[s]:   5158.88
ElecMinimize: Converged (|Delta F|<1.000000e-08 for 2 iters).
Setting wave functions to eigenvectors of Hamiltonian
Single-point solvation energy estimate, DeltaF = -0.042068881841260

# Ionic positions in lattice coordinates:
ion Ta   0.166667780131944   0.083332222888888   0.499999991333335 1
ion Ta   0.416667780131944   0.083332222888888   0.499999991333335 1
ion Ta   0.666667780131944   0.083332222888888   0.499999991333335 1
ion Ta   0.916667780131944   0.083332222888888   0.499999991333335 1
ion Ta   0.166667780131944   0.333332222888888   0.499999991333335 1
ion Ta   0.416667780131944   0.333332222888888   0.499999991333335 1
ion Ta   0.666667780131944   0.333332222888888   0.499999991333335 1
ion Ta   0.916667780131944   0.333332222888888   0.499999991333335 1
ion Ta   0.166667780131944   0.583332222888888   0.499999991333335 1
ion Ta   0.416667780131944   0.583332222888888   0.499999991333335 1
ion Ta   0.666667780131944   0.583332222888888   0.499999991333335 1
ion Ta   0.916667780131944   0.583332222888888   0.499999991333335 1
ion Ta   0.166667780131944   0.833332222888888   0.499999991333335 1
ion Ta   0.416667780131944   0.833332222888888   0.499999991333335 1
ion Ta   0.666667780131944   0.833332222888888   0.499999991333335 1
ion Ta   0.916667780131944   0.833332222888888   0.499999991333335 1
ion S   0.000001113465278  -0.000001110444445   0.586319979333335 1
ion S   0.000001113465278  -0.000001110444445   0.413680003333335 1
ion S   0.250001113465278  -0.000001110444445   0.586319979333335 1
ion S   0.250001113465278  -0.000001110444445   0.413680003333335 1
ion S   0.500001113465278  -0.000001110444445   0.586319979333335 1
ion S   0.500001113465278  -0.000001110444445   0.413680003333335 1
ion S   0.750001113465278  -0.000001110444445   0.586319979333335 1
ion S   0.750001113465278  -0.000001110444445   0.413680003333335 1
ion S   0.000001113465278   0.249998889555555   0.586319979333335 1
ion S   0.000001113465278   0.249998889555555   0.413680003333335 1
ion S   0.250001113465278   0.249998889555555   0.586319979333335 1
ion S   0.250001113465278   0.249998889555555   0.413680003333335 1
ion S   0.500001113465278   0.249998889555555   0.586319979333335 1
ion S   0.500001113465278   0.249998889555555   0.413680003333335 1
ion S   0.750001113465278   0.249998889555555   0.586319979333335 1
ion S   0.750001113465278   0.249998889555555   0.413680003333335 1
ion S   0.000001113465278   0.499998889555555   0.586319979333335 1
ion S   0.000001113465278   0.499998889555555   0.413680003333335 1
ion S   0.250001113465278   0.499998889555555   0.586319979333335 1
ion S   0.250001113465278   0.499998889555555   0.413680003333335 1
ion S   0.500001113465278   0.499998889555555   0.586319979333335 1
ion S   0.500001113465278   0.499998889555555   0.413680003333335 1
ion S   0.750001113465278   0.499998889555555   0.586319979333335 1
ion S   0.750001113465278   0.499998889555555   0.413680003333335 1
ion S   0.000001113465278   0.749998889555555   0.586319979333335 1
ion S   0.000001113465278   0.749998889555555   0.413680003333335 1
ion S   0.250001113465278   0.749998889555555   0.586319979333335 1
ion S   0.250001113465278   0.749998889555555   0.413680003333335 1
ion S   0.500001113465278   0.749998889555555   0.586319979333335 1
ion S   0.500001113465278   0.749998889555555   0.413680003333335 1
ion S   0.750001113465278   0.749998889555555   0.586319979333335 1
ion S   0.750001113465278   0.749998889555555   0.413680003333335 1


# Forces in Lattice coordinates:
force Ta   0.000000000000000   0.000000000000000  -0.000000000000000 1
force Ta   0.000000000000000   0.000000000000000   0.000000000000000 1
force Ta  -0.000000000000000   0.000000000000000  -0.000000000000000 1
force Ta   0.000000000000000   0.000000000000000   0.000000000000000 1
force Ta   0.000000000000000  -0.000000000000000   0.000000000000000 1
force Ta  -0.000000000000000   0.000000000000000   0.000000000000000 1
force Ta  -0.000000000000000   0.000000000000000  -0.000000000000000 1
force Ta  -0.000000000000000   0.000000000000000  -0.000000000000000 1
force Ta  -0.000000000000000  -0.000000000000000  -0.000000000000000 1
force Ta  -0.000000000000000   0.000000000000000   0.000000000000000 1
force Ta   0.000000000000000  -0.000000000000000  -0.000000000000000 1
force Ta   0.000000000000000  -0.000000000000000   0.000000000000000 1
force Ta  -0.000000000000000   0.000000000000000   0.000000000000000 1
force Ta  -0.000000000000000   0.000000000000000  -0.000000000000000 1
force Ta  -0.000000000000000   0.000000000000000  -0.000000000000000 1
force Ta   0.000000000000000   0.000000000000000   0.000000000000000 1
force S  -0.000000000000000  -0.000000000000000   0.014491349497067 1
force S   0.000000000000000   0.000000000000000  -0.014491349497293 1
force S  -0.000000000000000  -0.000000000000000   0.014491349496840 1
force S  -0.000000000000000  -0.000000000000000  -0.014491349497180 1
force S   0.000000000000000   0.000000000000000   0.014491349497067 1
force S   0.000000000000000  -0.000000000000000  -0.014491349497294 1
force S   0.000000000000000   0.000000000000000   0.014491349496953 1
force S  -0.000000000000000   0.000000000000000  -0.014491349497179 1
force S  -0.000000000000000   0.000000000000000   0.014491349497067 1
force S  -0.000000000000000   0.000000000000000  -0.014491349497293 1
force S  -0.000000000000000  -0.000000000000000   0.014491349496953 1
force S   0.000000000000000   0.000000000000000  -0.014491349497294 1
force S  -0.000000000000000   0.000000000000000   0.014491349497067 1
force S   0.000000000000000  -0.000000000000000  -0.014491349497294 1
force S   0.000000000000000   0.000000000000000   0.014491349496954 1
force S  -0.000000000000000   0.000000000000000  -0.014491349497407 1
force S  -0.000000000000000  -0.000000000000000   0.014491349497067 1
force S  -0.000000000000000   0.000000000000000  -0.014491349497294 1
force S  -0.000000000000000  -0.000000000000000   0.014491349496953 1
force S   0.000000000000000  -0.000000000000000  -0.014491349497181 1
force S  -0.000000000000000   0.000000000000000   0.014491349496953 1
force S   0.000000000000000  -0.000000000000000  -0.014491349497294 1
force S   0.000000000000000  -0.000000000000000   0.014491349496953 1
force S   0.000000000000000  -0.000000000000000  -0.014491349497180 1
force S  -0.000000000000000  -0.000000000000000   0.014491349497067 1
force S  -0.000000000000000   0.000000000000000  -0.014491349497179 1
force S  -0.000000000000000  -0.000000000000000   0.014491349496953 1
force S   0.000000000000000  -0.000000000000000  -0.014491349497407 1
force S  -0.000000000000000   0.000000000000000   0.014491349497066 1
force S   0.000000000000000  -0.000000000000000  -0.014491349497294 1
force S  -0.000000000000000   0.000000000000000   0.014491349496953 1
force S   0.000000000000000  -0.000000000000000  -0.014491349497407 1

# Energy components:
   A_diel =       -0.0369880614126748
   Eewald =     7269.5185627740620475
       EH =     8297.4196138117840746
     Eloc =   -16840.3279558758185885
      Enl =     -222.9942732016771458
      Exc =     -473.4129635133484157
 Exc_core =      252.5823485118696397
       KE =      447.3121722243144518
  MuShift =       -0.0052767856220460
-------------------------------------
     Etot =    -1269.9447601158492489
       TS =        0.0849291288446034
-------------------------------------
        F =    -1270.0296892446938273

IonicMinimize: Iter:   0  F: -1270.029689244693827  |grad|_K:  1.994e-04  t[s]:   5177.23

#--- Lowdin population analysis ---
# oxidation-state Ta -0.398 -0.398 -0.398 -0.398 -0.398 -0.398 -0.398 -0.398 -0.398 -0.398 -0.398 -0.398 -0.398 -0.398 -0.398 -0.398
# magnetic-moments Ta -0.000 -0.000 -0.000 -0.000 -0.000 -0.000 -0.000 -0.000 -0.000 -0.000 -0.000 -0.000 -0.000 -0.000 -0.000 -0.000
# oxidation-state S +0.240 +0.240 +0.240 +0.240 +0.240 +0.240 +0.240 +0.240 +0.240 +0.240 +0.240 +0.240 +0.240 +0.240 +0.240 +0.240 +0.240 +0.240 +0.240 +0.240 +0.240 +0.240 +0.240 +0.240 +0.240 +0.240 +0.240 +0.240 +0.240 +0.240 +0.240 +0.240
# magnetic-moments S +0.000 +0.000 +0.000 +0.000 +0.000 +0.000 +0.000 +0.000 +0.000 +0.000 +0.000 +0.000 +0.000 +0.000 +0.000 +0.000 +0.000 +0.000 +0.000 +0.000 +0.000 +0.000 +0.000 +0.000 +0.000 +0.000 +0.000 +0.000 +0.000 +0.000 +0.000 +0.000

	Linear fluid (dielectric constant: 78.4, screening length: 5.74355 Bohr) occupying 0.757345 of unit cell:	Completed after 2 iterations at t[s]:   5204.66

-------- Electronic minimization -----------
	Linear fluid (dielectric constant: 78.4, screening length: 5.74355 Bohr) occupying 0.757345 of unit cell:	Completed after 0 iterations at t[s]:   5225.26
	FillingsUpdate:  mu: -0.199884847  nElectrons: 400.500000  magneticMoment: [ Abs: 0.00001  Tot: -0.00000 ]
ElecMinimize: Iter:   0  F: -1270.029693960828126  |grad|_K:  5.600e-08  alpha:  1.000e+00
	Linear fluid (dielectric constant: 78.4, screening length: 5.74355 Bohr) occupying 0.757346 of unit cell:	Completed after 0 iterations at t[s]:   5292.47
	Linear fluid (dielectric constant: 78.4, screening length: 5.74355 Bohr) occupying 0.757346 of unit cell:	Completed after 0 iterations at t[s]:   5319.33
	FillingsUpdate:  mu: -0.199885634  nElectrons: 400.500000  magneticMoment: [ Abs: 0.00000  Tot: -0.00000 ]
	SubspaceRotationAdjust: set factor to 0.39
ElecMinimize: Iter:   1  F: -1270.029694642569893  |grad|_K:  3.547e-08  alpha:  1.004e+00  linmin:  4.184e-07  t[s]:   5356.36
	Linear fluid (dielectric constant: 78.4, screening length: 5.74355 Bohr) occupying 0.757347 of unit cell:	Completed after 2 iterations at t[s]:   5382.80
	Linear fluid (dielectric constant: 78.4, screening length: 5.74355 Bohr) occupying 0.757347 of unit cell:	Completed after 0 iterations at t[s]:   5410.57
	FillingsUpdate:  mu: -0.199882835  nElectrons: 400.500000  magneticMoment: [ Abs: 0.00000  Tot: -0.00000 ]
	SubspaceRotationAdjust: set factor to 0.509
ElecMinimize: Iter:   2  F: -1270.029694771807272  |grad|_K:  3.228e-08  alpha:  6.513e-01  linmin: -1.286e-04  t[s]:   5447.37
	Linear fluid (dielectric constant: 78.4, screening length: 5.74355 Bohr) occupying 0.757348 of unit cell:	Completed after 0 iterations at t[s]:   5473.52
	Linear fluid (dielectric constant: 78.4, screening length: 5.74355 Bohr) occupying 0.757348 of unit cell:	Completed after 0 iterations at t[s]:   5500.55
	FillingsUpdate:  mu: -0.199883328  nElectrons: 400.500000  magneticMoment: [ Abs: 0.00000  Tot: +0.00000 ]
	SubspaceRotationAdjust: set factor to 0.612
ElecMinimize: Iter:   3  F: -1270.029694941955995  |grad|_K:  2.186e-08  alpha:  6.468e-01  linmin: -3.366e-08  t[s]:   5537.35
	Linear fluid (dielectric constant: 78.4, screening length: 5.74355 Bohr) occupying 0.757349 of unit cell:	Completed after 0 iterations at t[s]:   5563.86
	Linear fluid (dielectric constant: 78.4, screening length: 5.74355 Bohr) occupying 0.757349 of unit cell:	Completed after 0 iterations at t[s]:   5590.47
	FillingsUpdate:  mu: -0.199883670  nElectrons: 400.500000  magneticMoment: [ Abs: 0.00000  Tot: +0.00000 ]
	SubspaceRotationAdjust: set factor to 0.674
ElecMinimize: Iter:   4  F: -1270.029694994507508  |grad|_K:  1.322e-08  alpha:  5.076e-01  linmin: -1.313e-07  t[s]:   5627.14
	Linear fluid (dielectric constant: 78.4, screening length: 5.74355 Bohr) occupying 0.757349 of unit cell:	Completed after 0 iterations at t[s]:   5653.37
	Linear fluid (dielectric constant: 78.4, screening length: 5.74355 Bohr) occupying 0.757349 of unit cell:	Completed after 0 iterations at t[s]:   5680.04
	FillingsUpdate:  mu: -0.199883956  nElectrons: 400.500000  magneticMoment: [ Abs: 0.00000  Tot: +0.00000 ]
	SubspaceRotationAdjust: set factor to 0.838
ElecMinimize: Iter:   5  F: -1270.029695014308118  |grad|_K:  7.663e-09  alpha:  5.210e-01  linmin: -3.686e-07  t[s]:   5716.83
	Linear fluid (dielectric constant: 78.4, screening length: 5.74355 Bohr) occupying 0.757349 of unit cell:	Completed after 0 iterations at t[s]:   5742.93
	Linear fluid (dielectric constant: 78.4, screening length: 5.74355 Bohr) occupying 0.757349 of unit cell:	Completed after 1 iterations at t[s]:   5769.71
ElecMinimize: 	Step increased F by 4.368303e-08, reducing alpha to 6.189602e-02.
	Linear fluid (dielectric constant: 78.4, screening length: 5.74355 Bohr) occupying 0.757349 of unit cell:	Completed after 0 iterations at t[s]:   5827.55
ElecMinimize: 	Step increased F by 3.719742e-08, reducing alpha to 6.189602e-03.
	Linear fluid (dielectric constant: 78.4, screening length: 5.74355 Bohr) occupying 0.757349 of unit cell:	Completed after 0 iterations at t[s]:   5884.68
ElecMinimize: 	Step increased F by 3.729519e-08, reducing alpha to 6.189602e-04.
ElecMinimize: 	Step failed to reduce F after 3 attempts. Quitting step.
ElecMinimize: 	Undoing step.
	Linear fluid (dielectric constant: 78.4, screening length: 5.74355 Bohr) occupying 0.757349 of unit cell:	Completed after 0 iterations at t[s]:   5941.71
ElecMinimize: 	Step failed: resetting search direction.
	FillingsUpdate:  mu: -0.199873998  nElectrons: 400.500000  magneticMoment: [ Abs: 0.00000  Tot: +0.00000 ]
	SubspaceRotationAdjust: set factor to 0.777
ElecMinimize: Iter:   6  F: -1270.029694977004738  |grad|_K:  1.292e-08  alpha:  6.190e-04
	Linear fluid (dielectric constant: 78.4, screening length: 5.74355 Bohr) occupying 0.757349 of unit cell:	Completed after 0 iterations at t[s]:   6004.40
	Linear fluid (dielectric constant: 78.4, screening length: 5.74355 Bohr) occupying 0.757348 of unit cell:	Completed after 0 iterations at t[s]:   6031.00
	FillingsUpdate:  mu: -0.199872822  nElectrons: 400.500000  magneticMoment: [ Abs: 0.00000  Tot: +0.00000 ]
	SubspaceRotationAdjust: set factor to 1.07
ElecMinimize: Iter:   7  F: -1270.029695012144884  |grad|_K:  9.650e-09  alpha:  9.799e-01  linmin:  4.440e-07  t[s]:   6067.96
	Linear fluid (dielectric constant: 78.4, screening length: 5.74355 Bohr) occupying 0.757348 of unit cell:	Completed after 3 iterations at t[s]:   6094.41
	Linear fluid (dielectric constant: 78.4, screening length: 5.74355 Bohr) occupying 0.757348 of unit cell:	Completed after 0 iterations at t[s]:   6122.10
ElecMinimize: 	Step increased F by 1.197509e-08, reducing alpha to 7.357057e-03.
	Linear fluid (dielectric constant: 78.4, screening length: 5.74355 Bohr) occupying 0.757348 of unit cell:	Completed after 0 iterations at t[s]:   6179.39
	FillingsUpdate:  mu: -0.199950639  nElectrons: 400.500000  magneticMoment: [ Abs: 0.00000  Tot: +0.00000 ]
	SubspaceRotationAdjust: set factor to 0.62
ElecMinimize: Iter:   8  F: -1270.029695012998218  |grad|_K:  6.221e-08  alpha:  7.357e-03  linmin:  8.922e-05  t[s]:   6216.00
ElecMinimize: 	Bad step direction: g.d > 0.
ElecMinimize: 	Undoing step.
	Linear fluid (dielectric constant: 78.4, screening length: 5.74355 Bohr) occupying 0.757348 of unit cell:	Completed after 0 iterations at t[s]:   6242.36
ElecMinimize: 	Step failed: resetting search direction.
	FillingsUpdate:  mu: -0.199950639  nElectrons: 400.500000  magneticMoment: [ Abs: 0.00000  Tot: +0.00000 ]
	SubspaceRotationAdjust: set factor to 0.397
ElecMinimize: Iter:   9  F: -1270.029695013005721  |grad|_K:  4.980e-08  alpha:  0.000e+00
ElecMinimize: Converged (|Delta F|<1.000000e-08 for 2 iters).
Setting wave functions to eigenvectors of Hamiltonian
IonicMinimize: 	Wolfe criterion not satisfied: alpha: 1  (E-E0)/|gdotd0|: -1.00762  gdotd/gdotd0: 1.4003 (taking cubic step)
	Linear fluid (dielectric constant: 78.4, screening length: 5.74355 Bohr) occupying 0.757324 of unit cell:	Completed after 4 iterations at t[s]:   6324.23

-------- Electronic minimization -----------
	Linear fluid (dielectric constant: 78.4, screening length: 5.74355 Bohr) occupying 0.757324 of unit cell:	Completed after 0 iterations at t[s]:   6345.20
	FillingsUpdate:  mu: -0.199517700  nElectrons: 400.500000  magneticMoment: [ Abs: 0.00002  Tot: +0.00000 ]
ElecMinimize: Iter:   0  F: -1270.029693405855141  |grad|_K:  2.654e-07  alpha:  1.000e+00
	Linear fluid (dielectric constant: 78.4, screening length: 5.74355 Bohr) occupying 0.757318 of unit cell:	Completed after 6 iterations at t[s]:   6412.67
	Linear fluid (dielectric constant: 78.4, screening length: 5.74355 Bohr) occupying 0.757321 of unit cell:	Completed after 2 iterations at t[s]:   6441.20
	FillingsUpdate:  mu: -0.200008482  nElectrons: 400.500000  magneticMoment: [ Abs: 0.00002  Tot: +0.00000 ]
	SubspaceRotationAdjust: set factor to 0.469
ElecMinimize: Iter:   1  F: -1270.029700875325034  |grad|_K:  9.317e-08  alpha:  4.768e-01  linmin:  3.883e-04  t[s]:   6478.50
	Linear fluid (dielectric constant: 78.4, screening length: 5.74355 Bohr) occupying 0.757324 of unit cell:	Completed after 0 iterations at t[s]:   6504.61
	Linear fluid (dielectric constant: 78.4, screening length: 5.74355 Bohr) occupying 0.757326 of unit cell:	Completed after 2 iterations at t[s]:   6531.42
	FillingsUpdate:  mu: -0.199922764  nElectrons: 400.500000  magneticMoment: [ Abs: 0.00001  Tot: +0.00000 ]
	SubspaceRotationAdjust: set factor to 0.603
ElecMinimize: Iter:   2  F: -1270.029702532770443  |grad|_K:  7.903e-08  alpha:  1.060e+00  linmin:  3.614e-04  t[s]:   6568.84
	Linear fluid (dielectric constant: 78.4, screening length: 5.74355 Bohr) occupying 0.757332 of unit cell:	Completed after 3 iterations at t[s]:   6595.28
	Linear fluid (dielectric constant: 78.4, screening length: 5.74355 Bohr) occupying 0.757329 of unit cell:	Completed after 0 iterations at t[s]:   6622.78
	FillingsUpdate:  mu: -0.199879597  nElectrons: 400.500000  magneticMoment: [ Abs: 0.00001  Tot: +0.00000 ]
	SubspaceRotationAdjust: set factor to 0.72
ElecMinimize: Iter:   3  F: -1270.029703168075230  |grad|_K:  4.427e-08  alpha:  5.444e-01  linmin:  2.125e-05  t[s]:   6659.46
	Linear fluid (dielectric constant: 78.4, screening length: 5.74355 Bohr) occupying 0.757329 of unit cell:	Completed after 0 iterations at t[s]:   6685.48
	Linear fluid (dielectric constant: 78.4, screening length: 5.74355 Bohr) occupying 0.757329 of unit cell:	Completed after 0 iterations at t[s]:   6712.07
	FillingsUpdate:  mu: -0.199879782  nElectrons: 400.500000  magneticMoment: [ Abs: 0.00000  Tot: +0.00000 ]
	SubspaceRotationAdjust: set factor to 0.8
ElecMinimize: Iter:   4  F: -1270.029703394798162  |grad|_K:  2.612e-08  alpha:  5.438e-01  linmin:  1.397e-07  t[s]:   6748.98
	Linear fluid (dielectric constant: 78.4, screening length: 5.74355 Bohr) occupying 0.757329 of unit cell:	Completed after 0 iterations at t[s]:   6775.07
	Linear fluid (dielectric constant: 78.4, screening length: 5.74355 Bohr) occupying 0.757329 of unit cell:	Completed after 0 iterations at t[s]:   6801.63
	FillingsUpdate:  mu: -0.199879608  nElectrons: 400.500000  magneticMoment: [ Abs: 0.00000  Tot: +0.00000 ]
	SubspaceRotationAdjust: set factor to 0.908
ElecMinimize: Iter:   5  F: -1270.029703457454616  |grad|_K:  1.406e-08  alpha:  4.244e-01  linmin:  1.604e-07  t[s]:   6838.55
	Linear fluid (dielectric constant: 78.4, screening length: 5.74355 Bohr) occupying 0.757329 of unit cell:	Completed after 2 iterations at t[s]:   6864.91
	Linear fluid (dielectric constant: 78.4, screening length: 5.74355 Bohr) occupying 0.757329 of unit cell:	Completed after 0 iterations at t[s]:   6892.35
ElecMinimize: 	Step increased F by 9.019732e-08, reducing alpha to 5.325479e-03.
	Linear fluid (dielectric constant: 78.4, screening length: 5.74355 Bohr) occupying 0.757329 of unit cell:	Completed after 0 iterations at t[s]:   6949.51
ElecMinimize: 	Step increased F by 8.915526e-08, reducing alpha to 5.325479e-04.
	Linear fluid (dielectric constant: 78.4, screening length: 5.74355 Bohr) occupying 0.757329 of unit cell:	Completed after 0 iterations at t[s]:   7006.82
ElecMinimize: 	Step increased F by 8.910615e-08, reducing alpha to 5.325479e-05.
ElecMinimize: 	Step failed to reduce F after 3 attempts. Quitting step.
ElecMinimize: 	Undoing step.
	Linear fluid (dielectric constant: 78.4, screening length: 5.74355 Bohr) occupying 0.757329 of unit cell:	Completed after 0 iterations at t[s]:   7064.02
ElecMinimize: 	Step failed: resetting search direction.
	FillingsUpdate:  mu: -0.199910984  nElectrons: 400.500000  magneticMoment: [ Abs: 0.00000  Tot: +0.00000 ]
	SubspaceRotationAdjust: set factor to 0.753
ElecMinimize: Iter:   6  F: -1270.029703368327773  |grad|_K:  2.683e-08  alpha:  5.325e-05
	Linear fluid (dielectric constant: 78.4, screening length: 5.74355 Bohr) occupying 0.757330 of unit cell:	Completed after 2 iterations at t[s]:   7126.61
	Linear fluid (dielectric constant: 78.4, screening length: 5.74355 Bohr) occupying 0.757329 of unit cell:	Completed after 0 iterations at t[s]:   7154.07
	FillingsUpdate:  mu: -0.199864982  nElectrons: 400.500000  magneticMoment: [ Abs: 0.00000  Tot: +0.00000 ]
	SubspaceRotationAdjust: set factor to 0.375
ElecMinimize: Iter:   7  F: -1270.029703404844668  |grad|_K:  1.795e-08  alpha:  2.234e-01  linmin:  1.561e-04  t[s]:   7190.97
	Linear fluid (dielectric constant: 78.4, screening length: 5.74355 Bohr) occupying 0.757329 of unit cell:	Completed after 0 iterations at t[s]:   7217.00
	Linear fluid (dielectric constant: 78.4, screening length: 5.74355 Bohr) occupying 0.757329 of unit cell:	Completed after 0 iterations at t[s]:   7243.79
	FillingsUpdate:  mu: -0.199864872  nElectrons: 400.500000  magneticMoment: [ Abs: 0.00000  Tot: +0.00000 ]
	SubspaceRotationAdjust: set factor to 0.542
ElecMinimize: Iter:   8  F: -1270.029703431582220  |grad|_K:  1.552e-08  alpha:  6.061e-01  linmin: -2.165e-07  t[s]:   7280.61
	Linear fluid (dielectric constant: 78.4, screening length: 5.74355 Bohr) occupying 0.757328 of unit cell:	Completed after 2 iterations at t[s]:   7307.01
	Linear fluid (dielectric constant: 78.4, screening length: 5.74355 Bohr) occupying 0.757328 of unit cell:	Completed after 0 iterations at t[s]:   7334.56
ElecMinimize: 	Step increased F by 2.723823e-08, reducing alpha to 1.038705e-02.
	Linear fluid (dielectric constant: 78.4, screening length: 5.74355 Bohr) occupying 0.757329 of unit cell:	Completed after 0 iterations at t[s]:   7391.91
ElecMinimize: 	Step increased F by 1.381113e-08, reducing alpha to 1.038705e-03.
	Linear fluid (dielectric constant: 78.4, screening length: 5.74355 Bohr) occupying 0.757329 of unit cell:	Completed after 0 iterations at t[s]:   7449.39
ElecMinimize: 	Step increased F by 2.513093e-08, reducing alpha to 1.038705e-04.
ElecMinimize: 	Step failed to reduce F after 3 attempts. Quitting step.
ElecMinimize: 	Undoing step.
	Linear fluid (dielectric constant: 78.4, screening length: 5.74355 Bohr) occupying 0.757329 of unit cell:	Completed after 0 iterations at t[s]:   7506.78
ElecMinimize: 	Step failed: resetting search direction.
	FillingsUpdate:  mu: -0.199911575  nElectrons: 400.500000  magneticMoment: [ Abs: 0.00000  Tot: +0.00000 ]
	SubspaceRotationAdjust: set factor to 0.444
ElecMinimize: Iter:   9  F: -1270.029703406541103  |grad|_K:  2.823e-08  alpha:  1.039e-04
	Linear fluid (dielectric constant: 78.4, screening length: 5.74355 Bohr) occupying 0.757329 of unit cell:	Completed after 2 iterations at t[s]:   7569.69
	Linear fluid (dielectric constant: 78.4, screening length: 5.74355 Bohr) occupying 0.757329 of unit cell:	Completed after 0 iterations at t[s]:   7596.91
	FillingsUpdate:  mu: -0.199840503  nElectrons: 400.500000  magneticMoment: [ Abs: 0.00000  Tot: +0.00000 ]
	SubspaceRotationAdjust: set factor to 0.247
ElecMinimize: Iter:  10  F: -1270.029703452807780  |grad|_K:  2.785e-08  alpha:  1.971e-01  linmin:  9.253e-04  t[s]:   7633.63
	Linear fluid (dielectric constant: 78.4, screening length: 5.74355 Bohr) occupying 0.757328 of unit cell:	Completed after 0 iterations at t[s]:   7659.69
	Linear fluid (dielectric constant: 78.4, screening length: 5.74355 Bohr) occupying 0.757329 of unit cell:	Completed after 0 iterations at t[s]:   7686.29
	FillingsUpdate:  mu: -0.199840451  nElectrons: 400.500000  magneticMoment: [ Abs: 0.00000  Tot: +0.00000 ]
	SubspaceRotationAdjust: set factor to 0.215
ElecMinimize: Iter:  11  F: -1270.029703454785931  |grad|_K:  2.324e-08  alpha:  1.168e-01  linmin: -1.986e-07  t[s]:   7723.27
	Linear fluid (dielectric constant: 78.4, screening length: 5.74355 Bohr) occupying 0.757328 of unit cell:	Completed after 0 iterations at t[s]:   7749.39
ElecMinimize: 	Predicted alpha/alphaT>3.000000, increasing alphaT to 3.505485e-01.
	Linear fluid (dielectric constant: 78.4, screening length: 5.74355 Bohr) occupying 0.757328 of unit cell:	Completed after 2 iterations at t[s]:   7776.05
	Linear fluid (dielectric constant: 78.4, screening length: 5.74355 Bohr) occupying 0.757328 of unit cell:	Completed after 0 iterations at t[s]:   7804.11
ElecMinimize: 	Step increased F by 4.345497e-08, reducing alpha to 9.952568e-03.
	Linear fluid (dielectric constant: 78.4, screening length: 5.74355 Bohr) occupying 0.757329 of unit cell:	Completed after 0 iterations at t[s]:   7867.32
ElecMinimize: 	Step increased F by 3.897230e-08, reducing alpha to 9.952568e-04.
	Linear fluid (dielectric constant: 78.4, screening length: 5.74355 Bohr) occupying 0.757329 of unit cell:	Completed after 0 iterations at t[s]:   7929.91
ElecMinimize: 	Step increased F by 3.862056e-08, reducing alpha to 9.952568e-05.
ElecMinimize: 	Step failed to reduce F after 3 attempts. Quitting step.
ElecMinimize: 	Undoing step.
	Linear fluid (dielectric constant: 78.4, screening length: 5.74355 Bohr) occupying 0.757329 of unit cell:	Completed after 0 iterations at t[s]:   7993.00
ElecMinimize: 	Step failed: resetting search direction.
	FillingsUpdate:  mu: -0.199882453  nElectrons: 400.500000  magneticMoment: [ Abs: 0.00000  Tot: +0.00000 ]
	SubspaceRotationAdjust: set factor to 0.0935
ElecMinimize: Iter:  12  F: -1270.029703416134453  |grad|_K:  6.090e-09  alpha:  9.953e-05
	Linear fluid (dielectric constant: 78.4, screening length: 5.74355 Bohr) occupying 0.757329 of unit cell:	Completed after 0 iterations at t[s]:   8062.49
ElecMinimize: 	Predicted alpha/alphaT>3.000000, increasing alphaT to 3.505485e-01.
	Linear fluid (dielectric constant: 78.4, screening length: 5.74355 Bohr) occupying 0.757328 of unit cell:	Completed after 0 iterations at t[s]:   8091.97
	Linear fluid (dielectric constant: 78.4, screening length: 5.74355 Bohr) occupying 0.757328 of unit cell:	Completed after 0 iterations at t[s]:   8122.64
	FillingsUpdate:  mu: -0.199882537  nElectrons: 400.500000  magneticMoment: [ Abs: 0.00000  Tot: +0.00000 ]
	SubspaceRotationAdjust: set factor to 0.123
ElecMinimize: Iter:  13  F: -1270.029703419937277  |grad|_K:  5.586e-09  alpha:  4.829e-01  linmin:  2.281e-06  t[s]:   8163.91
	Linear fluid (dielectric constant: 78.4, screening length: 5.74355 Bohr) occupying 0.757328 of unit cell:	Completed after 0 iterations at t[s]:   8192.41
	Linear fluid (dielectric constant: 78.4, screening length: 5.74355 Bohr) occupying 0.757328 of unit cell:	Completed after 0 iterations at t[s]:   8223.32
ElecMinimize: 	Step increased F by 8.225470e-09, reducing alpha to 1.086184e-01.
	Linear fluid (dielectric constant: 78.4, screening length: 5.74355 Bohr) occupying 0.757328 of unit cell:	Completed after 0 iterations at t[s]:   8287.61
ElecMinimize: 	Step increased F by 9.934411e-09, reducing alpha to 1.086184e-02.
	Linear fluid (dielectric constant: 78.4, screening length: 5.74355 Bohr) occupying 0.757328 of unit cell:	Completed after 0 iterations at t[s]:   8350.82
ElecMinimize: 	Step increased F by 1.068997e-08, reducing alpha to 1.086184e-03.
ElecMinimize: 	Step failed to reduce F after 3 attempts. Quitting step.
ElecMinimize: 	Undoing step.
	Linear fluid (dielectric constant: 78.4, screening length: 5.74355 Bohr) occupying 0.757328 of unit cell:	Completed after 0 iterations at t[s]:   8412.98
ElecMinimize: 	Step failed: resetting search direction.
	FillingsUpdate:  mu: -0.199880996  nElectrons: 400.500000  magneticMoment: [ Abs: 0.00000  Tot: +0.00000 ]
	SubspaceRotationAdjust: set factor to 0.134
ElecMinimize: Iter:  14  F: -1270.029703409193871  |grad|_K:  5.025e-09  alpha:  1.086e-03
	Linear fluid (dielectric constant: 78.4, screening length: 5.74355 Bohr) occupying 0.757328 of unit cell:	Completed after 0 iterations at t[s]:   8480.59
	Linear fluid (dielectric constant: 78.4, screening length: 5.74355 Bohr) occupying 0.757328 of unit cell:	Completed after 0 iterations at t[s]:   8510.93
	FillingsUpdate:  mu: -0.199881014  nElectrons: 400.500000  magneticMoment: [ Abs: 0.00000  Tot: +0.00000 ]
	SubspaceRotationAdjust: set factor to 0.182
ElecMinimize: Iter:  15  F: -1270.029703410668390  |grad|_K:  2.227e-09  alpha:  2.652e-01  linmin:  8.904e-06  t[s]:   8551.57
	Linear fluid (dielectric constant: 78.4, screening length: 5.74355 Bohr) occupying 0.757328 of unit cell:	Completed after 0 iterations at t[s]:   8578.20
ElecMinimize: 	Wrong curvature in test step, increasing alphaT to 7.954511e-01.
	Linear fluid (dielectric constant: 78.4, screening length: 5.74355 Bohr) occupying 0.757328 of unit cell:	Completed after 0 iterations at t[s]:   8601.16
	FillingsUpdate:  mu: -0.199881038  nElectrons: 400.500000  magneticMoment: [ Abs: 0.00000  Tot: +0.00000 ]
	SubspaceRotationAdjust: set factor to 0.186
ElecMinimize: Iter:  16  F: -1270.029703411254559  |grad|_K:  2.139e-09  alpha: -2.789e+00  linmin: -8.219e-05  t[s]:   8641.10
ElecMinimize: Converged (|Delta F|<1.000000e-08 for 2 iters).
Setting wave functions to eigenvectors of Hamiltonian

# Ionic positions in lattice coordinates:
ion Ta   0.166667780131944   0.083332222888888   0.499999991333335 1
ion Ta   0.416667780131944   0.083332222888888   0.499999991333335 1
ion Ta   0.666667780131944   0.083332222888888   0.499999991333335 1
ion Ta   0.916667780131944   0.083332222888888   0.499999991333335 1
ion Ta   0.166667780131944   0.333332222888888   0.499999991333335 1
ion Ta   0.416667780131944   0.333332222888888   0.499999991333335 1
ion Ta   0.666667780131944   0.333332222888888   0.499999991333335 1
ion Ta   0.916667780131944   0.333332222888888   0.499999991333335 1
ion Ta   0.166667780131944   0.583332222888888   0.499999991333335 1
ion Ta   0.416667780131944   0.583332222888888   0.499999991333335 1
ion Ta   0.666667780131944   0.583332222888888   0.499999991333335 1
ion Ta   0.916667780131944   0.583332222888888   0.499999991333335 1
ion Ta   0.166667780131944   0.833332222888888   0.499999991333335 1
ion Ta   0.416667780131944   0.833332222888888   0.499999991333335 1
ion Ta   0.666667780131944   0.833332222888888   0.499999991333335 1
ion Ta   0.916667780131944   0.833332222888888   0.499999991333335 1
ion S   0.000001113465278  -0.000001110444445   0.586357014375746 1
ion S   0.000001113465278  -0.000001110444445   0.413642968290924 1
ion S   0.250001113465278  -0.000001110444445   0.586357014375746 1
ion S   0.250001113465278  -0.000001110444445   0.413642968290924 1
ion S   0.500001113465278  -0.000001110444445   0.586357014375746 1
ion S   0.500001113465278  -0.000001110444445   0.413642968290924 1
ion S   0.750001113465278  -0.000001110444445   0.586357014375746 1
ion S   0.750001113465278  -0.000001110444445   0.413642968290924 1
ion S   0.000001113465278   0.249998889555555   0.586357014375746 1
ion S   0.000001113465278   0.249998889555555   0.413642968290924 1
ion S   0.250001113465278   0.249998889555555   0.586357014375746 1
ion S   0.250001113465278   0.249998889555555   0.413642968290924 1
ion S   0.500001113465278   0.249998889555555   0.586357014375746 1
ion S   0.500001113465278   0.249998889555555   0.413642968290924 1
ion S   0.750001113465278   0.249998889555555   0.586357014375746 1
ion S   0.750001113465278   0.249998889555555   0.413642968290924 1
ion S   0.000001113465278   0.499998889555555   0.586357014375746 1
ion S   0.000001113465278   0.499998889555555   0.413642968290924 1
ion S   0.250001113465278   0.499998889555555   0.586357014375746 1
ion S   0.250001113465278   0.499998889555555   0.413642968290924 1
ion S   0.500001113465278   0.499998889555555   0.586357014375746 1
ion S   0.500001113465278   0.499998889555555   0.413642968290924 1
ion S   0.750001113465278   0.499998889555555   0.586357014375746 1
ion S   0.750001113465278   0.499998889555555   0.413642968290924 1
ion S   0.000001113465278   0.749998889555555   0.586357014375746 1
ion S   0.000001113465278   0.749998889555555   0.413642968290924 1
ion S   0.250001113465278   0.749998889555555   0.586357014375746 1
ion S   0.250001113465278   0.749998889555555   0.413642968290924 1
ion S   0.500001113465278   0.749998889555555   0.586357014375746 1
ion S   0.500001113465278   0.749998889555555   0.413642968290924 1
ion S   0.750001113465278   0.749998889555555   0.586357014375746 1
ion S   0.750001113465278   0.749998889555555   0.413642968290924 1


# Forces in Lattice coordinates:
force Ta   0.000000000000000  -0.000000000000000   0.000000000000000 1
force Ta  -0.000000000000000  -0.000000000000000   0.000000000000000 1
force Ta   0.000000000000000  -0.000000000000000  -0.000000000000000 1
force Ta  -0.000000000000000  -0.000000000000000   0.000000000000000 1
force Ta   0.000000000000000  -0.000000000000000   0.000000000000000 1
force Ta   0.000000000000000  -0.000000000000000   0.000000000000000 1
force Ta   0.000000000000000  -0.000000000000000  -0.000000000000000 1
force Ta   0.000000000000000  -0.000000000000000   0.000000000000000 1
force Ta  -0.000000000000000  -0.000000000000000  -0.000000000000000 1
force Ta  -0.000000000000000  -0.000000000000000  -0.000000000000000 1
force Ta   0.000000000000000  -0.000000000000000   0.000000000000000 1
force Ta  -0.000000000000000  -0.000000000000000  -0.000000000000000 1
force Ta  -0.000000000000000   0.000000000000000   0.000000000000000 1
force Ta   0.000000000000000   0.000000000000000  -0.000000000000000 1
force Ta   0.000000000000000   0.000000000000000  -0.000000000000000 1
force Ta  -0.000000000000000  -0.000000000000000  -0.000000000000000 1
force S   0.000000000000000   0.000000000000000   0.008444886754223 1
force S   0.000000000000000  -0.000000000000000  -0.008444886754224 1
force S  -0.000000000000000  -0.000000000000000   0.008444886754337 1
force S   0.000000000000000   0.000000000000000  -0.008444886754224 1
force S  -0.000000000000000  -0.000000000000000   0.008444886754337 1
force S   0.000000000000000   0.000000000000000  -0.008444886754224 1
force S  -0.000000000000000  -0.000000000000000   0.008444886754450 1
force S   0.000000000000000  -0.000000000000000  -0.008444886754110 1
force S  -0.000000000000000   0.000000000000000   0.008444886754337 1
force S  -0.000000000000000  -0.000000000000000  -0.008444886754223 1
force S  -0.000000000000000   0.000000000000000   0.008444886754337 1
force S   0.000000000000000   0.000000000000000  -0.008444886754224 1
force S  -0.000000000000000   0.000000000000000   0.008444886754337 1
force S   0.000000000000000  -0.000000000000000  -0.008444886754224 1
force S  -0.000000000000000  -0.000000000000000   0.008444886754337 1
force S  -0.000000000000000  -0.000000000000000  -0.008444886754224 1
force S   0.000000000000000   0.000000000000000   0.008444886754110 1
force S  -0.000000000000000  -0.000000000000000  -0.008444886754109 1
force S   0.000000000000000   0.000000000000000   0.008444886754450 1
force S   0.000000000000000   0.000000000000000  -0.008444886753995 1
force S   0.000000000000000  -0.000000000000000   0.008444886754222 1
force S  -0.000000000000000   0.000000000000000  -0.008444886754109 1
force S  -0.000000000000000   0.000000000000000   0.008444886754222 1
force S   0.000000000000000   0.000000000000000  -0.008444886754224 1
force S  -0.000000000000000   0.000000000000000   0.008444886754224 1
force S  -0.000000000000000  -0.000000000000000  -0.008444886754110 1
force S   0.000000000000000  -0.000000000000000   0.008444886754337 1
force S  -0.000000000000000  -0.000000000000000  -0.008444886754224 1
force S   0.000000000000000  -0.000000000000000   0.008444886754222 1
force S  -0.000000000000000   0.000000000000000  -0.008444886753995 1
force S   0.000000000000000  -0.000000000000000   0.008444886754450 1
force S  -0.000000000000000   0.000000000000000  -0.008444886754224 1

# Energy components:
   A_diel =       -0.0369793638689446
   Eewald =     7268.8154126914860171
       EH =     8296.7414574606918904
     Eloc =   -16838.9334087818242551
      Enl =     -222.9947908567647232
      Exc =     -473.4052807856191976
 Exc_core =      252.5823457913786854
       KE =      447.2917726496207820
  MuShift =       -0.0052767856220460
-------------------------------------
     Etot =    -1269.9447479805212424
       TS =        0.0849554307334131
-------------------------------------
        F =    -1270.0297034112545589

IonicMinimize: Iter:   1  F: -1270.029703411254559  |grad|_K:  1.162e-04  alpha:  3.000e+00  linmin: -1.000e+00  t[s]:   8662.25

#--- Lowdin population analysis ---
# oxidation-state Ta -0.398 -0.398 -0.398 -0.398 -0.398 -0.398 -0.398 -0.398 -0.398 -0.398 -0.398 -0.398 -0.398 -0.398 -0.398 -0.398
# magnetic-moments Ta +0.000 +0.000 +0.000 +0.000 +0.000 +0.000 +0.000 +0.000 +0.000 +0.000 +0.000 +0.000 +0.000 +0.000 +0.000 +0.000
# oxidation-state S +0.240 +0.240 +0.240 +0.240 +0.240 +0.240 +0.240 +0.240 +0.240 +0.240 +0.240 +0.240 +0.240 +0.240 +0.240 +0.240 +0.240 +0.240 +0.240 +0.240 +0.240 +0.240 +0.240 +0.240 +0.240 +0.240 +0.240 +0.240 +0.240 +0.240 +0.240 +0.240
# magnetic-moments S -0.000 -0.000 -0.000 -0.000 -0.000 -0.000 -0.000 -0.000 -0.000 -0.000 -0.000 -0.000 -0.000 -0.000 -0.000 -0.000 -0.000 -0.000 -0.000 -0.000 -0.000 -0.000 -0.000 -0.000 -0.000 -0.000 -0.000 -0.000 -0.000 -0.000 -0.000 -0.000

	Linear fluid (dielectric constant: 78.4, screening length: 5.74355 Bohr) occupying 0.757267 of unit cell:	Completed after 4 iterations at t[s]:   8691.96

-------- Electronic minimization -----------
	Linear fluid (dielectric constant: 78.4, screening length: 5.74355 Bohr) occupying 0.757267 of unit cell:	Completed after 0 iterations at t[s]:   8715.71
	FillingsUpdate:  mu: -0.199589010  nElectrons: 400.500000  magneticMoment: [ Abs: 0.00005  Tot: +0.00000 ]
ElecMinimize: Iter:   0  F: -1270.029685789446376  |grad|_K:  2.612e-07  alpha:  1.000e+00
	Linear fluid (dielectric constant: 78.4, screening length: 5.74355 Bohr) occupying 0.757268 of unit cell:	Completed after 4 iterations at t[s]:   8788.23
	Linear fluid (dielectric constant: 78.4, screening length: 5.74355 Bohr) occupying 0.757268 of unit cell:	Completed after 3 iterations at t[s]:   8820.36
	FillingsUpdate:  mu: -0.199888997  nElectrons: 400.500000  magneticMoment: [ Abs: 0.00005  Tot: +0.00000 ]
	SubspaceRotationAdjust: set factor to 0.228
ElecMinimize: Iter:   1  F: -1270.029697344612259  |grad|_K:  1.326e-07  alpha:  7.849e-01  linmin:  5.969e-05  t[s]:   8861.54
	Linear fluid (dielectric constant: 78.4, screening length: 5.74355 Bohr) occupying 0.757269 of unit cell:	Completed after 0 iterations at t[s]:   8889.87
	Linear fluid (dielectric constant: 78.4, screening length: 5.74355 Bohr) occupying 0.757270 of unit cell:	Completed after 2 iterations at t[s]:   8919.94
	FillingsUpdate:  mu: -0.199899124  nElectrons: 400.500000  magneticMoment: [ Abs: 0.00005  Tot: +0.00000 ]
	SubspaceRotationAdjust: set factor to 0.288
ElecMinimize: Iter:   2  F: -1270.029701687182751  |grad|_K:  1.454e-07  alpha:  1.182e+00  linmin:  1.342e-04  t[s]:   8960.76
	Linear fluid (dielectric constant: 78.4, screening length: 5.74355 Bohr) occupying 0.757276 of unit cell:	Completed after 0 iterations at t[s]:   8988.93
	Linear fluid (dielectric constant: 78.4, screening length: 5.74355 Bohr) occupying 0.757274 of unit cell:	Completed after 0 iterations at t[s]:   9018.49
	FillingsUpdate:  mu: -0.199900313  nElectrons: 400.500000  magneticMoment: [ Abs: 0.00004  Tot: +0.00000 ]
	SubspaceRotationAdjust: set factor to 0.354
ElecMinimize: Iter:   3  F: -1270.029705161089851  |grad|_K:  1.035e-07  alpha:  7.829e-01  linmin:  2.928e-08  t[s]:   9057.94
	Linear fluid (dielectric constant: 78.4, screening length: 5.74355 Bohr) occupying 0.757279 of unit cell:	Completed after 2 iterations at t[s]:   9087.00
	Linear fluid (dielectric constant: 78.4, screening length: 5.74355 Bohr) occupying 0.757278 of unit cell:	Completed after 0 iterations at t[s]:   9117.55
	FillingsUpdate:  mu: -0.199880796  nElectrons: 400.500000  magneticMoment: [ Abs: 0.00002  Tot: +0.00000 ]
	SubspaceRotationAdjust: set factor to 0.413
ElecMinimize: Iter:   4  F: -1270.029706784821656  |grad|_K:  6.214e-08  alpha:  7.059e-01  linmin: -5.587e-05  t[s]:   9158.15
	Linear fluid (dielectric constant: 78.4, screening length: 5.74355 Bohr) occupying 0.757281 of unit cell:	Completed after 0 iterations at t[s]:   9185.85
	Linear fluid (dielectric constant: 78.4, screening length: 5.74355 Bohr) occupying 0.757281 of unit cell:	Completed after 0 iterations at t[s]:   9215.35
	FillingsUpdate:  mu: -0.199881839  nElectrons: 400.500000  magneticMoment: [ Abs: 0.00001  Tot: +0.00000 ]
	SubspaceRotationAdjust: set factor to 0.474
ElecMinimize: Iter:   5  F: -1270.029707319042473  |grad|_K:  4.228e-08  alpha:  6.210e-01  linmin:  1.919e-08  t[s]:   9255.09
	Linear fluid (dielectric constant: 78.4, screening length: 5.74355 Bohr) occupying 0.757283 of unit cell:	Completed after 2 iterations at t[s]:   9283.76
	Linear fluid (dielectric constant: 78.4, screening length: 5.74355 Bohr) occupying 0.757282 of unit cell:	Completed after 0 iterations at t[s]:   9313.70
	FillingsUpdate:  mu: -0.199839157  nElectrons: 400.500000  magneticMoment: [ Abs: 0.00001  Tot: +0.00000 ]
	SubspaceRotationAdjust: set factor to 0.403
ElecMinimize: Iter:   6  F: -1270.029707414154245  |grad|_K:  3.100e-08  alpha:  3.431e-01  linmin: -1.207e-05  t[s]:   9353.45
	Linear fluid (dielectric constant: 78.4, screening length: 5.74355 Bohr) occupying 0.757283 of unit cell:	Completed after 0 iterations at t[s]:   9381.84
	Linear fluid (dielectric constant: 78.4, screening length: 5.74355 Bohr) occupying 0.757283 of unit cell:	Completed after 0 iterations at t[s]:   9412.52
	FillingsUpdate:  mu: -0.199840167  nElectrons: 400.500000  magneticMoment: [ Abs: 0.00001  Tot: +0.00000 ]
	SubspaceRotationAdjust: set factor to 0.481
ElecMinimize: Iter:   7  F: -1270.029707499952565  |grad|_K:  2.721e-08  alpha:  4.545e-01  linmin:  2.365e-06  t[s]:   9452.67
	Linear fluid (dielectric constant: 78.4, screening length: 5.74355 Bohr) occupying 0.757283 of unit cell:	Completed after 1 iterations at t[s]:   9480.71
	Linear fluid (dielectric constant: 78.4, screening length: 5.74355 Bohr) occupying 0.757283 of unit cell:	Completed after 0 iterations at t[s]:   9510.15
	FillingsUpdate:  mu: -0.199877980  nElectrons: 400.500000  magneticMoment: [ Abs: 0.00001  Tot: +0.00000 ]
	SubspaceRotationAdjust: set factor to 0.405
ElecMinimize: Iter:   8  F: -1270.029707506508203  |grad|_K:  2.530e-08  alpha:  1.711e-01  linmin:  3.495e-05  t[s]:   9549.64
	Linear fluid (dielectric constant: 78.4, screening length: 5.74355 Bohr) occupying 0.757283 of unit cell:	Completed after 0 iterations at t[s]:   9577.71
	Linear fluid (dielectric constant: 78.4, screening length: 5.74355 Bohr) occupying 0.757283 of unit cell:	Completed after 0 iterations at t[s]:   9607.68
	FillingsUpdate:  mu: -0.199877925  nElectrons: 400.500000  magneticMoment: [ Abs: 0.00001  Tot: +0.00000 ]
	SubspaceRotationAdjust: set factor to 0.456
ElecMinimize: Iter:   9  F: -1270.029707524959576  |grad|_K:  2.052e-08  alpha:  1.825e-01  linmin:  7.945e-08  t[s]:   9648.22
	Linear fluid (dielectric constant: 78.4, screening length: 5.74355 Bohr) occupying 0.757283 of unit cell:	Completed after 0 iterations at t[s]:   9676.47
	Linear fluid (dielectric constant: 78.4, screening length: 5.74355 Bohr) occupying 0.757283 of unit cell:	Completed after 0 iterations at t[s]:   9706.31
	FillingsUpdate:  mu: -0.199878265  nElectrons: 400.500000  magneticMoment: [ Abs: 0.00000  Tot: +0.00000 ]
	SubspaceRotationAdjust: set factor to 0.613
ElecMinimize: Iter:  10  F: -1270.029707538529692  |grad|_K:  2.171e-08  alpha:  3.105e-01  linmin:  3.903e-06  t[s]:   9746.08
	Linear fluid (dielectric constant: 78.4, screening length: 5.74355 Bohr) occupying 0.757283 of unit cell:	Completed after 2 iterations at t[s]:   9774.70
	Linear fluid (dielectric constant: 78.4, screening length: 5.74355 Bohr) occupying 0.757283 of unit cell:	Completed after 0 iterations at t[s]:   9805.61
ElecMinimize: 	Step increased F by 7.131121e-09, reducing alpha to 6.741547e-03.
	Linear fluid (dielectric constant: 78.4, screening length: 5.74355 Bohr) occupying 0.757283 of unit cell:	Completed after 0 iterations at t[s]:   9868.54
	FillingsUpdate:  mu: -0.199839344  nElectrons: 400.500000  magneticMoment: [ Abs: 0.00000  Tot: +0.00000 ]
	SubspaceRotationAdjust: set factor to 0.502
ElecMinimize: Iter:  11  F: -1270.029707543598533  |grad|_K:  2.628e-08  alpha:  6.742e-03  linmin:  4.983e-05  t[s]:   9908.34
	Linear fluid (dielectric constant: 78.4, screening length: 5.74355 Bohr) occupying 0.757283 of unit cell:	Completed after 0 iterations at t[s]:   9936.89
ElecMinimize: 	Wrong curvature in test step, increasing alphaT to 2.022464e-02.
	Linear fluid (dielectric constant: 78.4, screening length: 5.74355 Bohr) occupying 0.757283 of unit cell:	Completed after 0 iterations at t[s]:   9960.94
	FillingsUpdate:  mu: -0.199839347  nElectrons: 400.500000  magneticMoment: [ Abs: 0.00000  Tot: +0.00000 ]
	SubspaceRotationAdjust: set factor to 0.636
ElecMinimize: Iter:  12  F: -1270.029707543830682  |grad|_K:  2.494e-08  alpha: -3.036e-02  linmin: -3.233e-06  t[s]:  10001.10
ElecMinimize: Converged (|Delta F|<1.000000e-08 for 2 iters).
Setting wave functions to eigenvectors of Hamiltonian

# Ionic positions in lattice coordinates:
ion Ta   0.166667780131944   0.083332222888888   0.499999991333335 1
ion Ta   0.416667780131944   0.083332222888888   0.499999991333335 1
ion Ta   0.666667780131944   0.083332222888888   0.499999991333335 1
ion Ta   0.916667780131944   0.083332222888888   0.499999991333335 1
ion Ta   0.166667780131944   0.333332222888888   0.499999991333335 1
ion Ta   0.416667780131944   0.333332222888888   0.499999991333335 1
ion Ta   0.666667780131944   0.333332222888888   0.499999991333335 1
ion Ta   0.916667780131944   0.333332222888888   0.499999991333335 1
ion Ta   0.166667780131944   0.583332222888888   0.499999991333335 1
ion Ta   0.416667780131944   0.583332222888888   0.499999991333335 1
ion Ta   0.666667780131944   0.583332222888888   0.499999991333335 1
ion Ta   0.916667780131944   0.583332222888888   0.499999991333335 1
ion Ta   0.166667780131944   0.833332222888888   0.499999991333335 1
ion Ta   0.416667780131944   0.833332222888888   0.499999991333335 1
ion Ta   0.666667780131944   0.833332222888888   0.499999991333335 1
ion Ta   0.916667780131944   0.833332222888888   0.499999991333335 1
ion S   0.000001113465278  -0.000001110444445   0.586408739946944 1
ion S   0.000001113465278  -0.000001110444445   0.413591242719726 1
ion S   0.250001113465278  -0.000001110444445   0.586408739946944 1
ion S   0.250001113465278  -0.000001110444445   0.413591242719726 1
ion S   0.500001113465278  -0.000001110444445   0.586408739946944 1
ion S   0.500001113465278  -0.000001110444445   0.413591242719726 1
ion S   0.750001113465278  -0.000001110444445   0.586408739946944 1
ion S   0.750001113465278  -0.000001110444445   0.413591242719726 1
ion S   0.000001113465278   0.249998889555555   0.586408739946944 1
ion S   0.000001113465278   0.249998889555555   0.413591242719726 1
ion S   0.250001113465278   0.249998889555555   0.586408739946944 1
ion S   0.250001113465278   0.249998889555555   0.413591242719726 1
ion S   0.500001113465278   0.249998889555555   0.586408739946944 1
ion S   0.500001113465278   0.249998889555555   0.413591242719726 1
ion S   0.750001113465278   0.249998889555555   0.586408739946944 1
ion S   0.750001113465278   0.249998889555555   0.413591242719726 1
ion S   0.000001113465278   0.499998889555555   0.586408739946944 1
ion S   0.000001113465278   0.499998889555555   0.413591242719726 1
ion S   0.250001113465278   0.499998889555555   0.586408739946944 1
ion S   0.250001113465278   0.499998889555555   0.413591242719726 1
ion S   0.500001113465278   0.499998889555555   0.586408739946944 1
ion S   0.500001113465278   0.499998889555555   0.413591242719726 1
ion S   0.750001113465278   0.499998889555555   0.586408739946944 1
ion S   0.750001113465278   0.499998889555555   0.413591242719726 1
ion S   0.000001113465278   0.749998889555555   0.586408739946944 1
ion S   0.000001113465278   0.749998889555555   0.413591242719726 1
ion S   0.250001113465278   0.749998889555555   0.586408739946944 1
ion S   0.250001113465278   0.749998889555555   0.413591242719726 1
ion S   0.500001113465278   0.749998889555555   0.586408739946944 1
ion S   0.500001113465278   0.749998889555555   0.413591242719726 1
ion S   0.750001113465278   0.749998889555555   0.586408739946944 1
ion S   0.750001113465278   0.749998889555555   0.413591242719726 1


# Forces in Lattice coordinates:
force Ta   0.000000000000000   0.000000000000000   0.000000000000000 1
force Ta  -0.000000000000000   0.000000000000000  -0.000000000000000 1
force Ta  -0.000000000000000   0.000000000000000  -0.000000000000000 1
force Ta  -0.000000000000000   0.000000000000000  -0.000000000000000 1
force Ta   0.000000000000000   0.000000000000000  -0.000000000000000 1
force Ta   0.000000000000000   0.000000000000000   0.000000000000000 1
force Ta  -0.000000000000000   0.000000000000000   0.000000000000000 1
force Ta  -0.000000000000000   0.000000000000000   0.000000000000000 1
force Ta  -0.000000000000000   0.000000000000000  -0.000000000000000 1
force Ta   0.000000000000000   0.000000000000000   0.000000000000000 1
force Ta   0.000000000000000   0.000000000000000  -0.000000000000000 1
force Ta   0.000000000000000   0.000000000000000  -0.000000000000000 1
force Ta  -0.000000000000000   0.000000000000000   0.000000000000000 1
force Ta   0.000000000000000   0.000000000000000  -0.000000000000000 1
force Ta   0.000000000000000  -0.000000000000000   0.000000000000000 1
force Ta   0.000000000000000   0.000000000000000  -0.000000000000000 1
force S   0.000000000000000  -0.000000000000000  -0.005474538637601 1
force S   0.000000000000000  -0.000000000000000   0.005474538637488 1
force S  -0.000000000000000  -0.000000000000000  -0.005474538637714 1
force S   0.000000000000000   0.000000000000000   0.005474538637602 1
force S   0.000000000000000   0.000000000000000  -0.005474538637600 1
force S   0.000000000000000  -0.000000000000000   0.005474538637601 1
force S  -0.000000000000000  -0.000000000000000  -0.005474538637601 1
force S  -0.000000000000000   0.000000000000000   0.005474538637602 1
force S   0.000000000000000  -0.000000000000000  -0.005474538637715 1
force S  -0.000000000000000  -0.000000000000000   0.005474538637602 1
force S   0.000000000000000   0.000000000000000  -0.005474538637487 1
force S   0.000000000000000  -0.000000000000000   0.005474538637602 1
force S  -0.000000000000000   0.000000000000000  -0.005474538637487 1
force S   0.000000000000000  -0.000000000000000   0.005474538637373 1
force S  -0.000000000000000   0.000000000000000  -0.005474538637714 1
force S   0.000000000000000   0.000000000000000   0.005474538637487 1
force S   0.000000000000000   0.000000000000000  -0.005474538637602 1
force S  -0.000000000000000  -0.000000000000000   0.005474538637601 1
force S  -0.000000000000000   0.000000000000000  -0.005474538637487 1
force S   0.000000000000000  -0.000000000000000   0.005474538637487 1
force S   0.000000000000000  -0.000000000000000  -0.005474538637373 1
force S  -0.000000000000000  -0.000000000000000   0.005474538637487 1
force S   0.000000000000000  -0.000000000000000  -0.005474538637601 1
force S   0.000000000000000   0.000000000000000   0.005474538637487 1
force S  -0.000000000000000  -0.000000000000000  -0.005474538637601 1
force S  -0.000000000000000  -0.000000000000000   0.005474538637715 1
force S   0.000000000000000   0.000000000000000  -0.005474538637600 1
force S  -0.000000000000000  -0.000000000000000   0.005474538637601 1
force S   0.000000000000000  -0.000000000000000  -0.005474538637714 1
force S   0.000000000000000  -0.000000000000000   0.005474538637600 1
force S  -0.000000000000000  -0.000000000000000  -0.005474538637601 1
force S  -0.000000000000000   0.000000000000000   0.005474538637600 1

# Energy components:
   A_diel =       -0.0369705428252410
   Eewald =     7267.8333134239392166
       EH =     8295.7672608336833946
     Eloc =   -16836.9600103682641929
      Enl =     -222.9917381233429694
      Exc =     -473.3940316996660158
 Exc_core =      252.5823420157138059
       KE =      447.2603969072049495
  MuShift =       -0.0052767856220460
-------------------------------------
     Etot =    -1269.9447143391805639
       TS =        0.0849932046500127
-------------------------------------
        F =    -1270.0297075438306820

IonicMinimize: Iter:   2  F: -1270.029707543830682  |grad|_K:  7.532e-05  alpha:  1.000e+00  linmin:  1.000e+00  t[s]:  10021.84
IonicMinimize: Converged (|grad|_K<1.000000e-04).

#--- Lowdin population analysis ---
# oxidation-state Ta -0.397 -0.397 -0.397 -0.397 -0.397 -0.397 -0.397 -0.397 -0.397 -0.397 -0.397 -0.397 -0.397 -0.397 -0.397 -0.397
# magnetic-moments Ta +0.000 +0.000 +0.000 +0.000 +0.000 +0.000 +0.000 +0.000 +0.000 +0.000 +0.000 +0.000 +0.000 +0.000 +0.000 +0.000
# oxidation-state S +0.240 +0.240 +0.240 +0.240 +0.240 +0.240 +0.240 +0.240 +0.240 +0.240 +0.240 +0.240 +0.240 +0.240 +0.240 +0.240 +0.240 +0.240 +0.240 +0.240 +0.240 +0.240 +0.240 +0.240 +0.240 +0.240 +0.240 +0.240 +0.240 +0.240 +0.240 +0.240
# magnetic-moments S +0.000 +0.000 +0.000 +0.000 +0.000 +0.000 +0.000 +0.000 +0.000 +0.000 +0.000 +0.000 +0.000 +0.000 +0.000 +0.000 +0.000 +0.000 +0.000 +0.000 +0.000 +0.000 +0.000 +0.000 +0.000 +0.000 +0.000 +0.000 +0.000 +0.000 +0.000 +0.000


Dumping 'NbTe2.fillings' ... done
Dumping 'NbTe2.wfns' ... done
Dumping 'NbTe2.fluidState' ... done
Dumping 'NbTe2.ionpos' ... done
Dumping 'NbTe2.eigenvals' ... done
End date and time: Thu Jan  7 11:34:51 2021  (Duration: 0-2:47:13.58)
Done!
