
*************** JDFTx 1.5.0  ***************

Start date and time: Tue Jan  5 13:40:18 2021
Executable jdftx_gpu with command-line: -i Charged.in -o Charged.out
Running on hosts (process indices):  amax (0-4)
Divided in process groups (process indices):  0 (0)  1 (1)  2 (2)  3 (3)  4 (4)
gpuInit: Found compatible cuda device 0 'Tesla K80'
gpuInit: Found compatible cuda device 1 'Tesla K80'
gpuInit: Found compatible cuda device 2 'Tesla K80'
gpuInit: Found compatible cuda device 3 'Tesla K80'
gpuInit: Found compatible cuda device 4 'Tesla K80'
gpuInit: Selected device 0
Resource initialization completed at t[s]:      3.10
Run totals: 5 processes, 24 threads, 5 GPUs


Input parsed successfully to the following command list (including defaults):

basis kpoint-dependent
cache-projectors no
coords-type Lattice
core-overlap-check none
coulomb-interaction Slab 001
coulomb-truncation-embed 0.5 0.5 0.5
davidson-band-ratio 1.1
dump End State
dump-name NbTe2.$VAR
elec-cutoff 20
elec-eigen-algo Davidson
elec-ex-corr gga-PBE
elec-initial-charge 1.500000
elec-initial-magnetization 10.000000 no
elec-smearing Gauss 0.0073499
electronic-minimize  \
	dirUpdateScheme      FletcherReeves \
	linminMethod         DirUpdateRecommended \
	nIterations          200 \
	history              15 \
	knormThreshold       0 \
	energyDiffThreshold  1e-08 \
	nEnergyDiff          2 \
	alphaTstart          1 \
	alphaTmin            1e-10 \
	updateTestStepSize   yes \
	alphaTreduceFactor   0.1 \
	alphaTincreaseFactor 3 \
	nAlphaAdjustMax      3 \
	wolfeEnergy          0.0001 \
	wolfeGradient        0.9 \
	fdTest               no
exchange-regularization WignerSeitzTruncated
fluid LinearPCM 298.000000 1.013250
fluid-anion F- 1 MeanFieldLJ \
	epsBulk 1 \
	pMol 0 \
	epsInf 1 \
	Pvap 0 \
	sigmaBulk 0 \
	Rvdw 2.24877 \
	Res 0 \
	tauNuc 343133
fluid-cation Na+ 1 MeanFieldLJ \
	epsBulk 1 \
	pMol 0 \
	epsInf 1 \
	Pvap 0 \
	sigmaBulk 0 \
	Rvdw 2.19208 \
	Res 0 \
	tauNuc 343133
fluid-ex-corr lda-TF lda-PZ
fluid-gummel-loop 10 1.000000e-05
fluid-minimize  \
	dirUpdateScheme      PolakRibiere \
	linminMethod         DirUpdateRecommended \
	nIterations          400 \
	history              15 \
	knormThreshold       1e-11 \
	energyDiffThreshold  0 \
	nEnergyDiff          2 \
	alphaTstart          1 \
	alphaTmin            1e-10 \
	updateTestStepSize   yes \
	alphaTreduceFactor   0.1 \
	alphaTincreaseFactor 3 \
	nAlphaAdjustMax      6 \
	wolfeEnergy          0.0001 \
	wolfeGradient        0.9 \
	fdTest               no
fluid-solvent H2O 55.338 ScalarEOS \
	epsBulk 78.4 \
	pMol 0.92466 \
	epsInf 1.77 \
	Pvap 1.06736e-10 \
	sigmaBulk 4.62e-05 \
	Rvdw 2.61727 \
	Res 1.42 \
	tauNuc 343133 \
	poleEl 15 7 1
forces-output-coords Positions
initial-state NbTe2.$VAR
ion C   0.166666531632309   0.083333455367686   0.566561437114040 1
ion C   0.083333474604824   0.166666526395179   0.433443722749172 1
ion C   0.416666550632307   0.083333455367686   0.566561437114040 1
ion C   0.333333483604822   0.166666526395179   0.433443722749172 1
ion C   0.666666550632307   0.083333455367686   0.566561437114040 1
ion C   0.583333444604822   0.166666526395179   0.433443722749172 1
ion C   0.916666550632307   0.083333455367686   0.566561437114040 1
ion C   0.833333522604821   0.166666526395179   0.433443722749172 1
ion C   0.166666536632313   0.333333465367687   0.566561437114040 1
ion C   0.083333478604825   0.416666536395173   0.433443722749172 1
ion C   0.416666536632313   0.333333465367687   0.566561437114040 1
ion C   0.333333488604825   0.416666536395173   0.433443722749172 1
ion C   0.666666536632313   0.333333465367687   0.566561437114040 1
ion C   0.583333430604821   0.416666536395173   0.433443722749172 1
ion C   0.916666575632313   0.333333465367687   0.566561437114040 1
ion C   0.833333469604820   0.416666536395173   0.433443722749172 1
ion C   0.166666543632310   0.583333440367689   0.566561437114040 1
ion C   0.083333487604822   0.666666534395173   0.433443722749172 1
ion C   0.416666543632310   0.583333440367689   0.566561437114040 1
ion C   0.333333487604822   0.666666534395173   0.433443722749172 1
ion C   0.666666543632310   0.583333440367689   0.566561437114040 1
ion C   0.583333448604822   0.666666534395173   0.433443722749172 1
ion C   0.916666582632310   0.583333440367689   0.566561437114040 1
ion C   0.833333487604822   0.666666534395173   0.433443722749172 1
ion C   0.166666500632310   0.833333394367692   0.566561437114040 1
ion C   0.083333489604822   0.916666578395177   0.433443722749172 1
ion C   0.416666500632310   0.833333394367692   0.566561437114040 1
ion C   0.333333489604822   0.916666578395177   0.433443722749172 1
ion C   0.666666500632310   0.833333394367692   0.566561437114040 1
ion C   0.583333451604826   0.916666578395177   0.433443722749172 1
ion C   0.916666539632310   0.833333394367692   0.566561437114040 1
ion C   0.833333489604822   0.916666578395177   0.433443722749172 1
ion Ti  -0.000000006430495   0.000000006430495   0.499998022656401 1
ion Ti   0.083332914315182   0.166667086684822   0.618881398774232 1
ion Ti   0.166667065878178   0.083332921121817   0.381118601225768 1
ion Ti   0.249999993569505   0.000000006430495   0.499998022656401 1
ion Ti   0.333332923315179   0.166667086684822   0.618881398774232 1
ion Ti   0.416667084878176   0.083332921121817   0.381118601225768 1
ion Ti   0.499999993569505   0.000000006430495   0.499998022656401 1
ion Ti   0.583332884315179   0.166667086684822   0.618881398774232 1
ion Ti   0.666667084878176   0.083332921121817   0.381118601225768 1
ion Ti   0.750000032569505   0.000000006430495   0.499998022656401 1
ion Ti   0.833332962315179   0.166667086684822   0.618881398774232 1
ion Ti   0.916667084878176   0.083332921121817   0.381118601225768 1
ion Ti   0.999999992569509   0.250000004430495   0.499998022656401 1
ion Ti   0.083332918315182   0.416667096684816   0.618881398774232 1
ion Ti   0.166667070878182   0.333332931121818   0.381118601225768 1
ion Ti   0.249999992569509   0.250000004430495   0.499998022656401 1
ion Ti   0.333332928315183   0.416667096684816   0.618881398774232 1
ion Ti   0.416667070878182   0.333332931121818   0.381118601225768 1
ion Ti   0.500000012569503   0.250000004430495   0.499998022656401 1
ion Ti   0.583332870315178   0.416667096684816   0.618881398774232 1
ion Ti   0.666667070878182   0.333332931121818   0.381118601225768 1
ion Ti   0.750000051569503   0.250000004430495   0.499998022656401 1
ion Ti   0.833332909315178   0.416667096684816   0.618881398774232 1
ion Ti   0.916667109878182   0.333332931121818   0.381118601225768 1
ion Ti   0.999999991569505   0.500000003430498   0.499998022656401 1
ion Ti   0.083332927315179   0.666667094684816   0.618881398774232 1
ion Ti   0.166667077878179   0.583332906121820   0.381118601225768 1
ion Ti   0.249999991569505   0.500000003430498   0.499998022656401 1
ion Ti   0.333332927315179   0.666667094684816   0.618881398774232 1
ion Ti   0.416667077878179   0.583332906121820   0.381118601225768 1
ion Ti   0.499999991569505   0.500000003430498   0.499998022656401 1
ion Ti   0.583332888315179   0.666667094684816   0.618881398774232 1
ion Ti   0.666667077878179   0.583332906121820   0.381118601225768 1
ion Ti   0.750000030569505   0.500000003430498   0.499998022656401 1
ion Ti   0.833332927315179   0.666667094684816   0.618881398774232 1
ion Ti   0.916667116878179   0.583332906121820   0.381118601225768 1
ion Ti   0.999999971569503   0.750000001430498   0.499998022656401 1
ion Ti   0.083332929315179   0.916667138684819   0.618881398774232 1
ion Ti   0.166667034878179   0.833332860121823   0.381118601225768 1
ion Ti   0.249999971569503   0.750000001430498   0.499998022656401 1
ion Ti   0.333332929315179   0.916667138684819   0.618881398774232 1
ion Ti   0.416667034878179   0.833332860121823   0.381118601225768 1
ion Ti   0.499999971569503   0.750000001430498   0.499998022656401 1
ion Ti   0.583332891315183   0.916667138684819   0.618881398774232 1
ion Ti   0.666667034878179   0.833332860121823   0.381118601225768 1
ion Ti   0.750000010569503   0.750000001430498   0.499998022656401 1
ion Ti   0.833332929315179   0.916667138684819   0.618881398774232 1
ion Ti   0.916667073878179   0.833332860121823   0.381118601225768 1
ion-species GBRV/$ID_pbe.uspp
ion-width Ecut
ionic-minimize  \
	dirUpdateScheme      L-BFGS \
	linminMethod         DirUpdateRecommended \
	nIterations          500 \
	history              15 \
	knormThreshold       0.0001 \
	energyDiffThreshold  1e-06 \
	nEnergyDiff          2 \
	alphaTstart          1 \
	alphaTmin            1e-10 \
	updateTestStepSize   yes \
	alphaTreduceFactor   0.1 \
	alphaTincreaseFactor 3 \
	nAlphaAdjustMax      3 \
	wolfeEnergy          0.0001 \
	wolfeGradient        0.9 \
	fdTest               no
kpoint   0.000000000000   0.000000000000   0.000000000000  1.00000000000000
kpoint-folding 5 5 1 
latt-move-scale 1 1 1
latt-scale 1.88973 1.88973 1.88973 
lattice Triclinic 12.239 12.239 19.6623 90 90 120
lattice-minimize  \
	dirUpdateScheme      L-BFGS \
	linminMethod         DirUpdateRecommended \
	nIterations          0 \
	history              15 \
	knormThreshold       0 \
	energyDiffThreshold  1e-06 \
	nEnergyDiff          2 \
	alphaTstart          1 \
	alphaTmin            1e-10 \
	updateTestStepSize   yes \
	alphaTreduceFactor   0.1 \
	alphaTincreaseFactor 3 \
	nAlphaAdjustMax      3 \
	wolfeEnergy          0.0001 \
	wolfeGradient        0.9 \
	fdTest               no
lcao-params -1 1e-06 0.0073499
pcm-variant CANDLE
spintype z-spin
subspace-rotation-factor 1 yes
symmetries automatic
symmetry-threshold 0.0001



---------- Setting up symmetries ----------

Found 24 point-group symmetries of the bravais lattice
Found 192 space-group symmetries with basis
Applied RMS atom displacement 6.57349e-05 bohrs to make symmetries exact.

---------- Initializing the Grid ----------
R = 
[    23.1284   -11.5642          0  ]
[          0    20.0297          0  ]
[          0          0    37.1564  ]
unit cell volume = 17212.9
G =
[   0.271666   0.156846         -0  ]
[          0   0.313693          0  ]
[          0         -0   0.169101  ]
Minimum fftbox size, Smin = [  96  96  152  ]
Chosen fftbox size, S = [  96  96  160  ]

---------- Exchange Correlation functional ----------
Initalized PBE GGA exchange.
Initalized PBE GGA correlation.

---------- Setting up pseudopotentials ----------
Width of ionic core gaussian charges (only for fluid interactions / plotting) set to 0.397384

Reading pseudopotential file '/home/guoxy/vasp/jdftx-1.5.0/build/pseudopotentials/GBRV/c_pbe.uspp':
  Title: C.  Created by USPP 7.3.6 on 3-2-2014
  Reference state energy: -5.406344.  4 valence electrons in orbitals:
    |200>  occupation: 2  eigenvalue: -0.504890
    |210>  occupation: 2  eigenvalue: -0.194356
  lMax: 1  lLocal: 2  QijEcut: 5
  4 projectors sampled on a log grid with 503 points:
    l: 0  eig: -0.504890  rCut: 1.3
    l: 0  eig: 0.000000  rCut: 1.3
    l: 1  eig: -0.194357  rCut: 1.3
    l: 1  eig: 0.000000  rCut: 1.3
  Partial core density with radius 1.1
  Transforming core density to a uniform radial grid of dG=0.02 with 1474 points.
  Transforming local potential to a uniform radial grid of dG=0.02 with 1474 points.
  Transforming nonlocal projectors to a uniform radial grid of dG=0.02 with 432 points.
  Transforming density augmentations to a uniform radial grid of dG=0.02 with 1474 points.
  Transforming atomic orbitals to a uniform radial grid of dG=0.02 with 432 points.
  Core radius for overlap checks: 1.30 bohrs.

Reading pseudopotential file '/home/guoxy/vasp/jdftx-1.5.0/build/pseudopotentials/GBRV/ti_pbe.uspp':
  Title: Ti.  Created by USPP 7.3.6 on 31-3-15
  Reference state energy: -59.020943.  12 valence electrons in orbitals:
    |300>  occupation: 2  eigenvalue: -2.777623
    |310>  occupation: 6  eigenvalue: -1.894596
    |400>  occupation: 2  eigenvalue: -0.438610
    |320>  occupation: 1  eigenvalue: -0.583119
  lMax: 2  lLocal: 3  QijEcut: 6
  6 projectors sampled on a log grid with 597 points:
    l: 0  eig: -2.777624  rCut: 1.8
    l: 0  eig: -0.438611  rCut: 1.8
    l: 1  eig: -1.894596  rCut: 1.8
    l: 1  eig: 0.500000  rCut: 1.8
    l: 2  eig: -0.583118  rCut: 1.8
    l: 2  eig: 0.150000  rCut: 1.8
  Partial core density with radius 0.8
  Transforming core density to a uniform radial grid of dG=0.02 with 1474 points.
  Transforming local potential to a uniform radial grid of dG=0.02 with 1474 points.
  Transforming nonlocal projectors to a uniform radial grid of dG=0.02 with 432 points.
  Transforming density augmentations to a uniform radial grid of dG=0.02 with 1474 points.
  Transforming atomic orbitals to a uniform radial grid of dG=0.02 with 432 points.
  Core radius for overlap checks: 1.80 bohrs.

Initialized 2 species with 80 total atoms.

Folded 1 k-points by 5x5x1 to 25 k-points.

---------- Setting up k-points, bands, fillings ----------
Adding inversion symmetry to k-mesh for non-inversion-symmetric unit cell.
Reduced to 5 k-points under symmetry. 
Computing the number of bands and number of electrons
Calculating initial fillings.
nElectrons: 705.500000   nBands: 608   nStates: 10

----- Setting up reduced wavefunction bases (one per k-point) -----
average nbasis = 73534.680 , ideal nbasis = 73534.700

---------- Setting up coulomb interaction ----------
Fluid mode embedding: using embedded box, but periodic Coulomb kernel.
(Fluid response is responsible for (approximate) separation between periodic images.)
Setting up double-sized grid for truncated Coulomb potentials:
R = 
[    23.1284   -11.5642          0  ]
[          0    20.0297          0  ]
[          0          0    74.3127  ]
unit cell volume = 34425.7
G =
[   0.271666   0.156846         -0  ]
[          0   0.313693          0  ]
[          0         -0  0.0845506  ]
Chosen fftbox size, S = [  96  96  320  ]
Integer grid location selected as the embedding center:
   Grid: [  48  48  80  ]
   Lattice: [  0.5  0.5  0.5  ]
   Cartesian: [  5.78209  10.0149  18.5782  ]
Constructing Wigner-Seitz cell: 8 faces (6 quadrilaterals, 2 hexagons)
Range-separation parameter for embedded mesh potentials due to point charges: 0.619223 bohrs.

Initializing van der Waals corrections
	NOTE: vdW corrections apply only for interactions with fluid.
	 C:  C6:   30.35 Eh-a0^6  R0: 2.744 a0
	Ti:  C6:  187.33 Eh-a0^6  R0: 2.952 a0

---------- Setting up ewald sum ----------
Optimum gaussian width for ewald sums = 6.252056 bohr.
Real space sum over 405 unit cells with max indices [  4  4  2  ]
Reciprocal space sum over 8775 terms with max indices [  7  7  19  ]

---------- Allocating electronic variables ----------
Initializing wave functions:  linear combination of atomic orbitals
C pseudo-atom occupations:   s ( 2 )  p ( 2 )
Ti pseudo-atom occupations:   s ( 2 0 )  p ( 6 )  d ( 4 )
	FillingsUpdate:  mu: +0.243737905  nElectrons: 705.500000  magneticMoment: [ Abs: 5.39331  Tot: +5.38778 ]
LCAOMinimize: Iter:   0  F: -2424.0023470740447920  |grad|_K:  8.642e-02  alpha:  1.000e+00
LCAOMinimize: 	Step increased F by 6.192021e+02, reducing alpha to 4.852359e-02.
	FillingsUpdate:  mu: +0.837131774  nElectrons: 705.500000  magneticMoment: [ Abs: 7.92466  Tot: +7.92093 ]
LCAOMinimize: Iter:   1  F: -2696.0386801954118710  |grad|_K:  1.183e-02  alpha:  4.852e-02  linmin: -1.175e-02  cgtest: -3.378e+00  t[s]:    385.55
LCAOMinimize: 	Wrong curvature in test step, increasing alphaT to 1.455708e-01.
	FillingsUpdate:  mu: +0.767790448  nElectrons: 705.500000  magneticMoment: [ Abs: 5.82203  Tot: +5.82124 ]
LCAOMinimize: Iter:   2  F: -2723.6412602166496981  |grad|_K:  1.490e-02  alpha: -7.991e-01  linmin: -1.385e-01  cgtest:  7.401e-01  t[s]:    482.50
LCAOMinimize: 	Step increased F by 2.580685e+02, reducing alpha to 3.600169e-02.
	FillingsUpdate:  mu: +0.704994367  nElectrons: 705.500000  magneticMoment: [ Abs: 5.67706  Tot: +5.67477 ]
LCAOMinimize: Iter:   3  F: -2818.9163862103109750  |grad|_K:  2.982e-02  alpha:  3.600e-02  linmin: -2.517e-01  cgtest:  3.636e-01  t[s]:    650.84
	FillingsUpdate:  mu: -0.444490489  nElectrons: 705.500000  magneticMoment: [ Abs: 2.94496  Tot: +2.82795 ]
LCAOMinimize: Iter:   4  F: -2893.0198324371667695  |grad|_K:  2.389e-02  alpha:  2.134e-02  linmin: -9.073e-02  cgtest: -1.091e+00  t[s]:    749.55
	FillingsUpdate:  mu: +0.148346598  nElectrons: 705.500000  magneticMoment: [ Abs: 3.45882  Tot: +3.45429 ]
LCAOMinimize: Iter:   5  F: -2952.5996323349149861  |grad|_K:  3.561e-03  alpha:  1.386e-02  linmin:  1.411e-01  cgtest:  1.225e+00  t[s]:    847.66
LCAOMinimize: Encountered beta<0, resetting CG.
LCAOMinimize: 	Wrong curvature in test step, increasing alphaT to 4.158663e-02.
	FillingsUpdate:  mu: +0.153223989  nElectrons: 705.500000  magneticMoment: [ Abs: 3.43316  Tot: +3.42847 ]
LCAOMinimize: Iter:   6  F: -2953.2516542809653401  |grad|_K:  3.518e-03  alpha: -3.113e+01  linmin: -1.410e-01  cgtest:  9.864e-01  t[s]:    948.28
	FillingsUpdate:  mu: +0.171100345  nElectrons: 705.500000  magneticMoment: [ Abs: 3.31024  Tot: +3.30449 ]
LCAOMinimize: Iter:   7  F: -2955.7951267431881206  |grad|_K:  3.441e-03  alpha:  5.406e-02  linmin: -1.516e-01  cgtest:  9.195e-01  t[s]:   1047.97
LCAOMinimize: 	Wrong curvature in test step, increasing alphaT to 1.621687e-01.
	FillingsUpdate:  mu: +0.187698688  nElectrons: 705.500000  magneticMoment: [ Abs: 3.14747  Tot: +3.13942 ]
LCAOMinimize: Iter:   8  F: -2958.4747395734193560  |grad|_K:  3.461e-03  alpha: -4.380e-01  linmin: -1.655e-01  cgtest:  8.824e-01  t[s]:   1145.91
	FillingsUpdate:  mu: +0.210068256  nElectrons: 705.500000  magneticMoment: [ Abs: 2.91512  Tot: +2.90052 ]
LCAOMinimize: Iter:   9  F: -2961.8561457483419872  |grad|_K:  3.533e-03  alpha:  5.992e-02  linmin: -1.855e-01  cgtest:  8.282e-01  t[s]:   1245.33
LCAOMinimize: 	Wrong curvature in test step, increasing alphaT to 1.797669e-01.
	FillingsUpdate:  mu: +0.242630345  nElectrons: 705.500000  magneticMoment: [ Abs: 2.61321  Tot: +2.57953 ]
LCAOMinimize: Iter:  10  F: -2965.7931520997772168  |grad|_K:  3.490e-03  alpha: -2.493e-01  linmin: -2.154e-01  cgtest:  7.919e-01  t[s]:   1343.33
	FillingsUpdate:  mu: +0.299768873  nElectrons: 705.500000  magneticMoment: [ Abs: 2.22716  Tot: +2.12197 ]
LCAOMinimize: Iter:  11  F: -2970.3752479336599208  |grad|_K:  2.798e-03  alpha:  7.376e-02  linmin: -2.657e-01  cgtest:  7.544e-01  t[s]:   1443.60
LCAOMinimize: 	Predicted alpha/alphaT>3.000000, increasing alphaT to 2.212940e-01.
	FillingsUpdate:  mu: +0.420364354  nElectrons: 705.500000  magneticMoment: [ Abs: 1.86096  Tot: +1.67593 ]
LCAOMinimize: Iter:  12  F: -2973.6099682062504144  |grad|_K:  1.862e-03  alpha:  1.542e-01  linmin: -4.875e-03  cgtest:  1.982e-01  t[s]:   1572.19
	FillingsUpdate:  mu: +0.397968961  nElectrons: 705.500000  magneticMoment: [ Abs: 1.83484  Tot: +1.62999 ]
LCAOMinimize: Iter:  13  F: -2974.6249080566849443  |grad|_K:  2.250e-04  alpha:  1.569e-01  linmin:  1.909e-01  cgtest: -5.172e-01  t[s]:   1672.39
	FillingsUpdate:  mu: +0.386267590  nElectrons: 705.500000  magneticMoment: [ Abs: 1.39334  Tot: +1.17336 ]
LCAOMinimize: Iter:  14  F: -2974.6473850106822283  |grad|_K:  2.206e-04  alpha:  4.312e-01  linmin:  5.093e-03  cgtest:  6.786e-01  t[s]:   1772.60
	FillingsUpdate:  mu: +0.379562916  nElectrons: 705.500000  magneticMoment: [ Abs: 1.12593  Tot: +0.91304 ]
LCAOMinimize: Iter:  15  F: -2974.6715295885710475  |grad|_K:  5.591e-05  alpha:  2.672e-01  linmin: -1.836e-03  cgtest: -8.014e-02  t[s]:   1873.03
	FillingsUpdate:  mu: +0.382303522  nElectrons: 705.500000  magneticMoment: [ Abs: 1.03687  Tot: +0.83094 ]
LCAOMinimize: Iter:  16  F: -2974.6723480983623631  |grad|_K:  5.296e-05  alpha:  1.401e-01  linmin: -6.341e-04  cgtest:  4.591e-03  t[s]:   1973.82
	FillingsUpdate:  mu: +0.384703210  nElectrons: 705.500000  magneticMoment: [ Abs: 0.68399  Tot: +0.50918 ]
LCAOMinimize: Iter:  17  F: -2974.6740671686065980  |grad|_K:  1.015e-05  alpha:  3.319e-01  linmin:  8.246e-03  cgtest: -1.050e-01  t[s]:   2074.14
	FillingsUpdate:  mu: +0.383530290  nElectrons: 705.500000  magneticMoment: [ Abs: 0.40802  Tot: +0.27696 ]
LCAOMinimize: Iter:  18  F: -2974.6741950189862109  |grad|_K:  3.653e-06  alpha:  6.825e-01  linmin:  9.826e-05  cgtest:  7.500e-02  t[s]:   2175.16
	FillingsUpdate:  mu: +0.383300786  nElectrons: 705.500000  magneticMoment: [ Abs: 0.30474  Tot: +0.19759 ]
LCAOMinimize: Iter:  19  F: -2974.6742051837331928  |grad|_K:  6.732e-06  alpha:  4.108e-01  linmin: -7.760e-06  cgtest: -1.041e-04  t[s]:   2274.98
	FillingsUpdate:  mu: +0.383463736  nElectrons: 705.500000  magneticMoment: [ Abs: 0.10711  Tot: +0.04394 ]
LCAOMinimize: Iter:  20  F: -2974.6742217630330742  |grad|_K:  3.535e-06  alpha:  1.983e-01  linmin:  9.443e-04  cgtest: -3.472e-03  t[s]:   2376.14
	FillingsUpdate:  mu: +0.383539762  nElectrons: 705.500000  magneticMoment: [ Abs: 0.04092  Tot: -0.03986 ]
LCAOMinimize: Iter:  21  F: -2974.6742293068668914  |grad|_K:  8.214e-07  alpha:  3.264e-01  linmin:  6.152e-04  cgtest:  6.483e-03  t[s]:   2476.33
	FillingsUpdate:  mu: +0.383593519  nElectrons: 705.500000  magneticMoment: [ Abs: 0.05196  Tot: -0.05073 ]
LCAOMinimize: Iter:  22  F: -2974.6742302422876492  |grad|_K:  9.494e-07  alpha:  7.480e-01  linmin:  4.842e-06  cgtest:  9.185e-05  t[s]:   2577.29
	FillingsUpdate:  mu: +0.383570429  nElectrons: 705.500000  magneticMoment: [ Abs: 0.05430  Tot: -0.05208 ]
LCAOMinimize: Iter:  23  F: -2974.6742303700539196  |grad|_K:  1.848e-07  alpha:  7.640e-02  linmin: -5.013e-04  cgtest:  2.425e-03  t[s]:   2677.81
LCAOMinimize: Converged (|Delta F|<1.000000e-06 for 2 iters).
----- createFluidSolver() ----- (Fluid-side solver setup)
   Initializing fluid molecule 'H2O'
     Initializing site 'O'
       Electron density: proportional to exp(-r/0.36935)*erfc((r-0.51523)/0.36823) with norm 6.826
       Charge density: gaussian nuclear width 0.478731 with net site charge 0.826
       Polarizability: cuspless exponential with width 0.32 and norm 3.73
       Hard sphere radius: 2.57003 bohrs
       Positions in reference frame:
         [ +0.000000 +0.000000 +0.000000 ]
     Initializing site 'H'
       Electron density: proportional to exp(-r/0.34641)*erfc((r-0)/0.390882) with norm 0.587
       Charge density: gaussian nuclear width 0.377945 with net site charge -0.413
       Polarizability: cuspless exponential with width 0.39 and norm 3.3
       Positions in reference frame:
         [ +0.000000 -1.441945 +1.122523 ]
         [ +0.000000 +1.441945 +1.122523 ]
     Net charge: 0   dipole magnitude: 0.927204
     Initializing spherical shell mfKernel with radius 2.61727 Bohr
     deltaS corrections:
       site 'O': -7.54299
       site 'H': -6.83917
   Initializing fluid molecule 'Na+'
     Initializing site 'Na'
       Electron density: proportional to exp(-r/0.19682)*erfc((r-0.71491)/0.41314) with norm 8.1383
       Charge density: gaussian nuclear width 0.365347 with net site charge -1
       Hard sphere radius: 1.86327 bohrs
       Positions in reference frame:
         [ +0.000000 +0.000000 +0.000000 ]
     Net charge: -1   dipole magnitude: 0
     Initializing gaussian mfKernel with width: 1.55004 Bohr
     deltaS corrections:
       site 'Na': -22.3555
   Initializing fluid molecule 'F-'
     Initializing site 'F'
       Electron density: proportional to exp(-r/0.38886)*erfc((r-0)/0.438782) with norm 8
       Charge density: gaussian nuclear width 0.374796 with net site charge 1
       Hard sphere radius: 2.39995 bohrs
       Positions in reference frame:
         [ +0.000000 +0.000000 +0.000000 ]
     Net charge: 1   dipole magnitude: 0
     Initializing gaussian mfKernel with width: 1.59012 Bohr
     deltaS corrections:
       site 'F': -9.04335

Correction to mu due to finite nuclear width = -0.0202903
   Cavity determined by nc: 0.00142 and sigma: 0.707107
   Nonlocal vdW cavity from gaussian model electron density with norm = 8 and sigma = 0.993594 bohr
   Charge asymmetry in cavity with sensitivity pCavity = 36.5 e-bohr/Eh
   Electrostatic cavity expanded by eta = 1.46 bohrs
   Weighted density cavitation model constrained by Nbulk: 0.0049383 bohr^-3, Pvap: 3.14029 kPa, Rvdw: 2.61727 bohr and sigmaBulk: 4.62e-05 Eh/bohr^2 at T: 298 K.
   Weighted density dispersion model using vdW pair potentials with single solvent site with sqrtC6eff: 0.77 SI.


---- Citations for features of the code used in this run ----

   Software package:
      R. Sundararaman, K. Letchworth-Weaver, K.A. Schwarz, D. Gunceler, Y. Ozhabes and T.A. Arias, 'JDFTx: software for joint density-functional theory', SoftwareX 6, 278 (2017)

   gga-PBE exchange-correlation functional:
      J.P. Perdew, K. Burke and M. Ernzerhof, Phys. Rev. Lett. 77, 3865 (1996)

   Pseudopotentials:
      KF Garrity, JW Bennett, KM Rabe and D Vanderbilt, Comput. Mater. Sci. 81, 446 (2014)

   Truncated Coulomb potentials:
      R. Sundararaman and T.A. Arias, Phys. Rev. B 87, 165122 (2013)

   Van der Waals correction pair-potentials:
      S. Grimme, J. Comput. Chem. 27, 1787 (2006)

   Charge-asymmetric nonlocally-determined local-electric (CANDLE) solvation model:
      R. Sundararaman and W.A. Goddard III, J. Chem. Phys. 142, 064107 (2015)

   Total energy minimization with Auxiliary Hamiltonian:
      C. Freysoldt, S. Boeck, and J. Neugebauer, Phys. Rev. B 79, 241103(R) (2009)

This list may not be complete. Please suggest additional citations or
report any other bugs at https://github.com/shankar1729/jdftx/issues

Initialization completed successfully at t[s]:   2696.69

Fluid solver invoked on fresh (partially random / LCAO) wavefunctions
Running a vacuum solve first:

-------- Initial electronic minimization -----------
	FillingsUpdate:  mu: +0.383570429  nElectrons: 705.500000  magneticMoment: [ Abs: 0.05430  Tot: -0.05208 ]
ElecMinimize: Iter:   0  F: -2974.674230370045734  |grad|_K:  1.668e-04  alpha:  1.000e+00
	FillingsUpdate:  mu: +0.204894195  nElectrons: 705.500000  magneticMoment: [ Abs: 0.05415  Tot: -0.05131 ]
	SubspaceRotationAdjust: set factor to 1
ElecMinimize: Iter:   1  F: -2979.292436917721716  |grad|_K:  9.678e-05  alpha:  3.756e-01  linmin:  1.069e-04  t[s]:   2937.24
	FillingsUpdate:  mu: +0.206537043  nElectrons: 705.500000  magneticMoment: [ Abs: 0.03620  Tot: -0.03144 ]
	SubspaceRotationAdjust: set factor to 0.796
ElecMinimize: Iter:   2  F: -2981.497751998233070  |grad|_K:  6.464e-05  alpha:  5.292e-01  linmin: -3.851e-04  t[s]:   3088.24
	FillingsUpdate:  mu: +0.186568811  nElectrons: 705.500000  magneticMoment: [ Abs: 0.02610  Tot: -0.02093 ]
	SubspaceRotationAdjust: set factor to 0.54
ElecMinimize: Iter:   3  F: -2982.391355844605641  |grad|_K:  6.266e-05  alpha:  4.682e-01  linmin: -3.400e-05  t[s]:   3238.93
	FillingsUpdate:  mu: +0.129177338  nElectrons: 705.500000  magneticMoment: [ Abs: 0.02314  Tot: -0.01783 ]
	SubspaceRotationAdjust: set factor to 0.349
ElecMinimize: Iter:   4  F: -2982.631156836503123  |grad|_K:  3.727e-05  alpha:  1.466e-01  linmin:  3.392e-04  t[s]:   3388.78
ElecMinimize: 	Predicted alpha/alphaT>3.000000, increasing alphaT to 4.397759e-01.
	FillingsUpdate:  mu: +0.082708016  nElectrons: 705.500000  magneticMoment: [ Abs: 0.01843  Tot: -0.01354 ]
	SubspaceRotationAdjust: set factor to 0.376
ElecMinimize: Iter:   5  F: -2982.907485380017988  |grad|_K:  2.536e-05  alpha:  4.684e-01  linmin:  1.261e-04  t[s]:   3579.59
	FillingsUpdate:  mu: +0.093193463  nElectrons: 705.500000  magneticMoment: [ Abs: 0.01723  Tot: -0.01288 ]
	SubspaceRotationAdjust: set factor to 0.301
ElecMinimize: Iter:   6  F: -2982.998425606362616  |grad|_K:  1.830e-05  alpha:  3.220e-01  linmin:  6.539e-07  t[s]:   3727.63
	FillingsUpdate:  mu: +0.096938082  nElectrons: 705.500000  magneticMoment: [ Abs: 0.01634  Tot: -0.01269 ]
	SubspaceRotationAdjust: set factor to 0.366
ElecMinimize: Iter:   7  F: -2983.059755291714737  |grad|_K:  1.360e-05  alpha:  4.090e-01  linmin:  1.082e-05  t[s]:   3875.88
	FillingsUpdate:  mu: +0.090917331  nElectrons: 705.500000  magneticMoment: [ Abs: 0.01531  Tot: -0.01242 ]
	SubspaceRotationAdjust: set factor to 0.351
ElecMinimize: Iter:   8  F: -2983.099491135896642  |grad|_K:  9.585e-06  alpha:  4.828e-01  linmin:  1.297e-05  t[s]:   4024.47
	FillingsUpdate:  mu: +0.092107832  nElectrons: 705.500000  magneticMoment: [ Abs: 0.01476  Tot: -0.01234 ]
	SubspaceRotationAdjust: set factor to 0.321
ElecMinimize: Iter:   9  F: -2983.113193497254088  |grad|_K:  7.852e-06  alpha:  3.336e-01  linmin:  1.339e-07  t[s]:   4173.28
	FillingsUpdate:  mu: +0.086175962  nElectrons: 705.500000  magneticMoment: [ Abs: 0.01401  Tot: -0.01234 ]
	SubspaceRotationAdjust: set factor to 0.394
ElecMinimize: Iter:  10  F: -2983.128344567459862  |grad|_K:  5.371e-06  alpha:  5.490e-01  linmin:  1.166e-05  t[s]:   4319.96
	FillingsUpdate:  mu: +0.082251942  nElectrons: 705.500000  magneticMoment: [ Abs: 0.01377  Tot: -0.01245 ]
	SubspaceRotationAdjust: set factor to 0.398
ElecMinimize: Iter:  11  F: -2983.133594593580256  |grad|_K:  4.704e-06  alpha:  4.078e-01  linmin:  1.870e-07  t[s]:   4468.34
	FillingsUpdate:  mu: +0.082280453  nElectrons: 705.500000  magneticMoment: [ Abs: 0.01366  Tot: -0.01262 ]
	SubspaceRotationAdjust: set factor to 0.335
ElecMinimize: Iter:  12  F: -2983.137291959318645  |grad|_K:  3.512e-06  alpha:  3.722e-01  linmin:  4.783e-07  t[s]:   4616.87
	FillingsUpdate:  mu: +0.079268748  nElectrons: 705.500000  magneticMoment: [ Abs: 0.01366  Tot: -0.01284 ]
	SubspaceRotationAdjust: set factor to 0.379
ElecMinimize: Iter:  13  F: -2983.139804185472713  |grad|_K:  2.658e-06  alpha:  4.542e-01  linmin:  5.402e-06  t[s]:   4765.13
	FillingsUpdate:  mu: +0.077507212  nElectrons: 705.500000  magneticMoment: [ Abs: 0.01374  Tot: -0.01304 ]
	SubspaceRotationAdjust: set factor to 0.38
ElecMinimize: Iter:  14  F: -2983.141428991067187  |grad|_K:  2.234e-06  alpha:  5.138e-01  linmin:  6.585e-06  t[s]:   4913.27
	FillingsUpdate:  mu: +0.078545937  nElectrons: 705.500000  magneticMoment: [ Abs: 0.01381  Tot: -0.01315 ]
	SubspaceRotationAdjust: set factor to 0.308
ElecMinimize: Iter:  15  F: -2983.142122811076206  |grad|_K:  1.562e-06  alpha:  3.102e-01  linmin: -6.309e-07  t[s]:   5060.63
	FillingsUpdate:  mu: +0.077767551  nElectrons: 705.500000  magneticMoment: [ Abs: 0.01394  Tot: -0.01328 ]
	SubspaceRotationAdjust: set factor to 0.397
ElecMinimize: Iter:  16  F: -2983.142772823469841  |grad|_K:  1.256e-06  alpha:  5.945e-01  linmin:  6.663e-06  t[s]:   5208.25
	FillingsUpdate:  mu: +0.076798655  nElectrons: 705.500000  magneticMoment: [ Abs: 0.01411  Tot: -0.01338 ]
	SubspaceRotationAdjust: set factor to 0.381
ElecMinimize: Iter:  17  F: -2983.143114793535005  |grad|_K:  1.093e-06  alpha:  4.841e-01  linmin:  1.564e-06  t[s]:   5356.83
	FillingsUpdate:  mu: +0.077243650  nElectrons: 705.500000  magneticMoment: [ Abs: 0.01444  Tot: -0.01353 ]
	SubspaceRotationAdjust: set factor to 0.34
ElecMinimize: Iter:  18  F: -2983.143353836353526  |grad|_K:  9.359e-07  alpha:  4.461e-01  linmin:  1.278e-06  t[s]:   5504.71
	FillingsUpdate:  mu: +0.076981699  nElectrons: 705.500000  magneticMoment: [ Abs: 0.01492  Tot: -0.01374 ]
	SubspaceRotationAdjust: set factor to 0.371
ElecMinimize: Iter:  19  F: -2983.143508803314489  |grad|_K:  6.263e-07  alpha:  3.945e-01  linmin:  1.336e-06  t[s]:   5654.07
	FillingsUpdate:  mu: +0.076775589  nElectrons: 705.500000  magneticMoment: [ Abs: 0.01558  Tot: -0.01408 ]
	SubspaceRotationAdjust: set factor to 0.41
ElecMinimize: Iter:  20  F: -2983.143623288287927  |grad|_K:  5.417e-07  alpha:  6.519e-01  linmin:  2.595e-06  t[s]:   5802.26
	FillingsUpdate:  mu: +0.076857129  nElectrons: 705.500000  magneticMoment: [ Abs: 0.01604  Tot: -0.01439 ]
	SubspaceRotationAdjust: set factor to 0.404
ElecMinimize: Iter:  21  F: -2983.143677159326216  |grad|_K:  4.487e-07  alpha:  4.100e-01  linmin: -2.049e-07  t[s]:   5950.68
	FillingsUpdate:  mu: +0.076644820  nElectrons: 705.500000  magneticMoment: [ Abs: 0.01651  Tot: -0.01479 ]
	SubspaceRotationAdjust: set factor to 0.367
ElecMinimize: Iter:  22  F: -2983.143714601635111  |grad|_K:  3.743e-07  alpha:  4.142e-01  linmin:  5.439e-07  t[s]:   6099.04
	FillingsUpdate:  mu: +0.076911536  nElectrons: 705.500000  magneticMoment: [ Abs: 0.01702  Tot: -0.01529 ]
	SubspaceRotationAdjust: set factor to 0.399
ElecMinimize: Iter:  23  F: -2983.143743642771369  |grad|_K:  2.684e-07  alpha:  4.623e-01  linmin:  9.718e-07  t[s]:   6247.56
	FillingsUpdate:  mu: +0.076969960  nElectrons: 705.500000  magneticMoment: [ Abs: 0.01754  Tot: -0.01583 ]
	SubspaceRotationAdjust: set factor to 0.463
ElecMinimize: Iter:  24  F: -2983.143762080296710  |grad|_K:  2.277e-07  alpha:  5.717e-01  linmin:  8.689e-07  t[s]:   6396.27
	FillingsUpdate:  mu: +0.076747405  nElectrons: 705.500000  magneticMoment: [ Abs: 0.01797  Tot: -0.01629 ]
	SubspaceRotationAdjust: set factor to 0.418
ElecMinimize: Iter:  25  F: -2983.143771854146053  |grad|_K:  1.965e-07  alpha:  4.205e-01  linmin:  8.010e-08  t[s]:   6545.06
	FillingsUpdate:  mu: +0.076772798  nElectrons: 705.500000  magneticMoment: [ Abs: 0.01838  Tot: -0.01673 ]
	SubspaceRotationAdjust: set factor to 0.388
ElecMinimize: Iter:  26  F: -2983.143777925218728  |grad|_K:  1.512e-07  alpha:  3.501e-01  linmin:  8.219e-08  t[s]:   6693.92
	FillingsUpdate:  mu: +0.076729005  nElectrons: 705.500000  magneticMoment: [ Abs: 0.01893  Tot: -0.01729 ]
	SubspaceRotationAdjust: set factor to 0.442
ElecMinimize: Iter:  27  F: -2983.143782961130455  |grad|_K:  1.114e-07  alpha:  4.912e-01  linmin:  7.612e-07  t[s]:   6843.48
	FillingsUpdate:  mu: +0.076696180  nElectrons: 705.500000  magneticMoment: [ Abs: 0.01944  Tot: -0.01781 ]
	SubspaceRotationAdjust: set factor to 0.508
ElecMinimize: Iter:  28  F: -2983.143785851535540  |grad|_K:  9.077e-08  alpha:  5.197e-01  linmin:  3.506e-07  t[s]:   6992.64
	FillingsUpdate:  mu: +0.076695984  nElectrons: 705.500000  magneticMoment: [ Abs: 0.01996  Tot: -0.01833 ]
	SubspaceRotationAdjust: set factor to 0.517
ElecMinimize: Iter:  29  F: -2983.143787652051742  |grad|_K:  8.357e-08  alpha:  4.873e-01  linmin:  2.831e-07  t[s]:   7142.52
	FillingsUpdate:  mu: +0.076645297  nElectrons: 705.500000  magneticMoment: [ Abs: 0.02040  Tot: -0.01877 ]
	SubspaceRotationAdjust: set factor to 0.445
ElecMinimize: Iter:  30  F: -2983.143788627111007  |grad|_K:  6.961e-08  alpha:  3.110e-01  linmin: -1.008e-07  t[s]:   7291.72
	FillingsUpdate:  mu: +0.076688869  nElectrons: 705.500000  magneticMoment: [ Abs: 0.02105  Tot: -0.01940 ]
	SubspaceRotationAdjust: set factor to 0.436
ElecMinimize: Iter:  31  F: -2983.143789558926073  |grad|_K:  5.337e-08  alpha:  4.290e-01  linmin:  7.536e-07  t[s]:   7441.78
	FillingsUpdate:  mu: +0.076678351  nElectrons: 705.500000  magneticMoment: [ Abs: 0.02169  Tot: -0.02003 ]
	SubspaceRotationAdjust: set factor to 0.53
ElecMinimize: Iter:  32  F: -2983.143790171631281  |grad|_K:  3.980e-08  alpha:  4.818e-01  linmin:  6.144e-07  t[s]:   7591.41
	FillingsUpdate:  mu: +0.076659093  nElectrons: 705.500000  magneticMoment: [ Abs: 0.02235  Tot: -0.02067 ]
	SubspaceRotationAdjust: set factor to 0.584
ElecMinimize: Iter:  33  F: -2983.143790556726344  |grad|_K:  3.525e-08  alpha:  5.439e-01  linmin:  5.093e-07  t[s]:   7741.15
	FillingsUpdate:  mu: +0.076688511  nElectrons: 705.500000  magneticMoment: [ Abs: 0.02291  Tot: -0.02120 ]
	SubspaceRotationAdjust: set factor to 0.533
ElecMinimize: Iter:  34  F: -2983.143790758579144  |grad|_K:  3.273e-08  alpha:  3.626e-01  linmin: -5.023e-08  t[s]:   7890.15
	FillingsUpdate:  mu: +0.076684864  nElectrons: 705.500000  magneticMoment: [ Abs: 0.02348  Tot: -0.02175 ]
	SubspaceRotationAdjust: set factor to 0.481
ElecMinimize: Iter:  35  F: -2983.143790899025589  |grad|_K:  2.520e-08  alpha:  2.915e-01  linmin:  7.230e-08  t[s]:   8039.87
	FillingsUpdate:  mu: +0.076695829  nElectrons: 705.500000  magneticMoment: [ Abs: 0.02425  Tot: -0.02247 ]
	SubspaceRotationAdjust: set factor to 0.555
ElecMinimize: Iter:  36  F: -2983.143791021752804  |grad|_K:  1.763e-08  alpha:  4.323e-01  linmin:  5.066e-07  t[s]:   8189.15
	FillingsUpdate:  mu: +0.076696110  nElectrons: 705.500000  magneticMoment: [ Abs: 0.02498  Tot: -0.02316 ]
	SubspaceRotationAdjust: set factor to 0.652
ElecMinimize: Iter:  37  F: -2983.143791092120864  |grad|_K:  1.508e-08  alpha:  5.079e-01  linmin:  2.456e-07  t[s]:   8337.46
	FillingsUpdate:  mu: +0.076698233  nElectrons: 705.500000  magneticMoment: [ Abs: 0.02578  Tot: -0.02389 ]
	SubspaceRotationAdjust: set factor to 0.704
ElecMinimize: Iter:  38  F: -2983.143791138786582  |grad|_K:  1.410e-08  alpha:  4.594e-01  linmin:  7.059e-08  t[s]:   8485.95
	FillingsUpdate:  mu: +0.076708010  nElectrons: 705.500000  magneticMoment: [ Abs: 0.02637  Tot: -0.02444 ]
	SubspaceRotationAdjust: set factor to 0.592
ElecMinimize: Iter:  39  F: -2983.143791161822264  |grad|_K:  1.312e-08  alpha:  2.572e-01  linmin: -6.295e-08  t[s]:   8635.38
	FillingsUpdate:  mu: +0.076699048  nElectrons: 705.500000  magneticMoment: [ Abs: 0.02728  Tot: -0.02528 ]
	SubspaceRotationAdjust: set factor to 0.594
ElecMinimize: Iter:  40  F: -2983.143791185995724  |grad|_K:  9.158e-09  alpha:  3.136e-01  linmin:  6.954e-08  t[s]:   8784.37
	FillingsUpdate:  mu: +0.076695231  nElectrons: 705.500000  magneticMoment: [ Abs: 0.02829  Tot: -0.02622 ]
	SubspaceRotationAdjust: set factor to 0.675
ElecMinimize: Iter:  41  F: -2983.143791203335695  |grad|_K:  7.541e-09  alpha:  4.665e-01  linmin:  3.924e-07  t[s]:   8933.49
	FillingsUpdate:  mu: +0.076696891  nElectrons: 705.500000  magneticMoment: [ Abs: 0.02941  Tot: -0.02725 ]
	SubspaceRotationAdjust: set factor to 0.808
ElecMinimize: Iter:  42  F: -2983.143791215538386  |grad|_K:  6.033e-09  alpha:  4.896e-01  linmin:  2.143e-07  t[s]:   9083.08
	FillingsUpdate:  mu: +0.076699696  nElectrons: 705.500000  magneticMoment: [ Abs: 0.03059  Tot: -0.02835 ]
	SubspaceRotationAdjust: set factor to 0.937
ElecMinimize: Iter:  43  F: -2983.143791223489643  |grad|_K:  5.804e-09  alpha:  4.956e-01  linmin:  1.961e-07  t[s]:   9232.39
	FillingsUpdate:  mu: +0.076693866  nElectrons: 705.500000  magneticMoment: [ Abs: 0.03162  Tot: -0.02930 ]
	SubspaceRotationAdjust: set factor to 0.764
ElecMinimize: Iter:  44  F: -2983.143791228073951  |grad|_K:  6.389e-09  alpha:  3.038e-01  linmin:  3.484e-09  t[s]:   9382.03
ElecMinimize: Converged (|Delta F|<1.000000e-08 for 2 iters).
Setting wave functions to eigenvectors of Hamiltonian
Vacuum energy after initial minimize, F = -2983.143791228073951

	Linear fluid (dielectric constant: 78.4, screening length: 5.74355 Bohr) occupying 0.696933 of unit cell:	Completed after 16 iterations at t[s]:   9413.19

-------- Electronic minimization -----------
	Linear fluid (dielectric constant: 78.4, screening length: 5.74355 Bohr) occupying 0.696933 of unit cell:	Completed after 0 iterations at t[s]:   9446.47
	FillingsUpdate:  mu: -0.130095147  nElectrons: 705.500000  magneticMoment: [ Abs: 0.03306  Tot: -0.03068 ]
ElecMinimize: Iter:   0  F: -2983.372529926929474  |grad|_K:  4.799e-06  alpha:  1.000e+00
	Linear fluid (dielectric constant: 78.4, screening length: 5.74355 Bohr) occupying 0.696494 of unit cell:	Completed after 13 iterations at t[s]:   9563.87
	Linear fluid (dielectric constant: 78.4, screening length: 5.74355 Bohr) occupying 0.696925 of unit cell:	Completed after 14 iterations at t[s]:   9613.46
	FillingsUpdate:  mu: -0.135728707  nElectrons: 705.500000  magneticMoment: [ Abs: 0.03321  Tot: -0.03081 ]
	SubspaceRotationAdjust: set factor to 0.454
ElecMinimize: Iter:   1  F: -2983.373720384930493  |grad|_K:  2.513e-06  alpha:  1.175e-01  linmin:  1.453e-05  t[s]:   9677.74
	Linear fluid (dielectric constant: 78.4, screening length: 5.74355 Bohr) occupying 0.697200 of unit cell:	Completed after 8 iterations at t[s]:   9727.46
	Linear fluid (dielectric constant: 78.4, screening length: 5.74355 Bohr) occupying 0.697617 of unit cell:	Completed after 10 iterations at t[s]:   9776.00
	FillingsUpdate:  mu: -0.139025350  nElectrons: 705.500000  magneticMoment: [ Abs: 0.03364  Tot: -0.03119 ]
	SubspaceRotationAdjust: set factor to 0.425
ElecMinimize: Iter:   2  F: -2983.374663409140339  |grad|_K:  1.452e-06  alpha:  3.308e-01  linmin: -5.723e-06  t[s]:   9839.41
	Linear fluid (dielectric constant: 78.4, screening length: 5.74355 Bohr) occupying 0.698325 of unit cell:	Completed after 8 iterations at t[s]:   9888.46
	Linear fluid (dielectric constant: 78.4, screening length: 5.74355 Bohr) occupying 0.698874 of unit cell:	Completed after 8 iterations at t[s]:   9936.82
	FillingsUpdate:  mu: -0.138060754  nElectrons: 705.500000  magneticMoment: [ Abs: 0.03436  Tot: -0.03182 ]
	SubspaceRotationAdjust: set factor to 0.646
ElecMinimize: Iter:   3  F: -2983.375302765977722  |grad|_K:  9.940e-07  alpha:  6.230e-01  linmin: -6.086e-06  t[s]:   9999.11
	Linear fluid (dielectric constant: 78.4, screening length: 5.74355 Bohr) occupying 0.699762 of unit cell:	Completed after 9 iterations at t[s]:  10048.57
	Linear fluid (dielectric constant: 78.4, screening length: 5.74355 Bohr) occupying 0.699766 of unit cell:	Completed after 0 iterations at t[s]:  10096.56
	FillingsUpdate:  mu: -0.137850671  nElectrons: 705.500000  magneticMoment: [ Abs: 0.03509  Tot: -0.03245 ]
	SubspaceRotationAdjust: set factor to 0.665
ElecMinimize: Iter:   4  F: -2983.375604359110639  |grad|_K:  6.385e-07  alpha:  6.261e-01  linmin: -1.856e-06  t[s]:  10157.41
	Linear fluid (dielectric constant: 78.4, screening length: 5.74355 Bohr) occupying 0.700371 of unit cell:	Completed after 11 iterations at t[s]:  10207.08
	Linear fluid (dielectric constant: 78.4, screening length: 5.74355 Bohr) occupying 0.700016 of unit cell:	Completed after 11 iterations at t[s]:  10256.24
	FillingsUpdate:  mu: -0.136767574  nElectrons: 705.500000  magneticMoment: [ Abs: 0.03542  Tot: -0.03275 ]
	SubspaceRotationAdjust: set factor to 0.444
ElecMinimize: Iter:   5  F: -2983.375650806040994  |grad|_K:  5.949e-07  alpha:  2.543e-01  linmin:  6.536e-07  t[s]:  10319.64
	Linear fluid (dielectric constant: 78.4, screening length: 5.74355 Bohr) occupying 0.700215 of unit cell:	Completed after 5 iterations at t[s]:  10368.23
	Linear fluid (dielectric constant: 78.4, screening length: 5.74355 Bohr) occupying 0.700221 of unit cell:	Completed after 0 iterations at t[s]:  10415.18
	FillingsUpdate:  mu: -0.136812345  nElectrons: 705.500000  magneticMoment: [ Abs: 0.03595  Tot: -0.03323 ]
	SubspaceRotationAdjust: set factor to 0.334
ElecMinimize: Iter:   6  F: -2983.375692072231232  |grad|_K:  3.299e-07  alpha:  2.611e-01  linmin: -2.414e-06  t[s]:  10476.32
	Linear fluid (dielectric constant: 78.4, screening length: 5.74355 Bohr) occupying 0.700268 of unit cell:	Completed after 6 iterations at t[s]:  10524.96
	Linear fluid (dielectric constant: 78.4, screening length: 5.74355 Bohr) occupying 0.700313 of unit cell:	Completed after 3 iterations at t[s]:  10572.03
	FillingsUpdate:  mu: -0.137297583  nElectrons: 705.500000  magneticMoment: [ Abs: 0.03656  Tot: -0.03379 ]
	SubspaceRotationAdjust: set factor to 0.374
ElecMinimize: Iter:   7  F: -2983.375717527571851  |grad|_K:  2.153e-07  alpha:  5.061e-01  linmin: -2.842e-05  t[s]:  10633.90
	Linear fluid (dielectric constant: 78.4, screening length: 5.74355 Bohr) occupying 0.700363 of unit cell:	Completed after 3 iterations at t[s]:  10683.35
	Linear fluid (dielectric constant: 78.4, screening length: 5.74355 Bohr) occupying 0.700362 of unit cell:	Completed after 0 iterations at t[s]:  10730.05
	FillingsUpdate:  mu: -0.137291214  nElectrons: 705.500000  magneticMoment: [ Abs: 0.03704  Tot: -0.03424 ]
	SubspaceRotationAdjust: set factor to 0.305
ElecMinimize: Iter:   8  F: -2983.375728223041278  |grad|_K:  2.009e-07  alpha:  5.002e-01  linmin:  6.481e-06  t[s]:  10791.02
	Linear fluid (dielectric constant: 78.4, screening length: 5.74355 Bohr) occupying 0.700403 of unit cell:	Completed after 1 iterations at t[s]:  10840.12
	Linear fluid (dielectric constant: 78.4, screening length: 5.74355 Bohr) occupying 0.700394 of unit cell:	Completed after 2 iterations at t[s]:  10885.81
	FillingsUpdate:  mu: -0.137273185  nElectrons: 705.500000  magneticMoment: [ Abs: 0.03758  Tot: -0.03474 ]
	SubspaceRotationAdjust: set factor to 0.274
ElecMinimize: Iter:   9  F: -2983.375735154226732  |grad|_K:  1.177e-07  alpha:  3.911e-01  linmin:  5.406e-07  t[s]:  10948.12
	Linear fluid (dielectric constant: 78.4, screening length: 5.74355 Bohr) occupying 0.700401 of unit cell:	Completed after 2 iterations at t[s]:  10996.87
	Linear fluid (dielectric constant: 78.4, screening length: 5.74355 Bohr) occupying 0.700403 of unit cell:	Completed after 0 iterations at t[s]:  11042.73
	FillingsUpdate:  mu: -0.137292079  nElectrons: 705.500000  magneticMoment: [ Abs: 0.03809  Tot: -0.03522 ]
	SubspaceRotationAdjust: set factor to 0.325
ElecMinimize: Iter:  10  F: -2983.375738561992875  |grad|_K:  7.770e-08  alpha:  5.437e-01  linmin: -5.826e-06  t[s]:  11104.26
	Linear fluid (dielectric constant: 78.4, screening length: 5.74355 Bohr) occupying 0.700402 of unit cell:	Completed after 2 iterations at t[s]:  11152.39
	Linear fluid (dielectric constant: 78.4, screening length: 5.74355 Bohr) occupying 0.700402 of unit cell:	Completed after 0 iterations at t[s]:  11198.70
	FillingsUpdate:  mu: -0.137279243  nElectrons: 705.500000  magneticMoment: [ Abs: 0.03850  Tot: -0.03560 ]
	SubspaceRotationAdjust: set factor to 0.312
ElecMinimize: Iter:  11  F: -2983.375739975017950  |grad|_K:  6.439e-08  alpha:  4.983e-01  linmin:  2.085e-06  t[s]:  11259.26
	Linear fluid (dielectric constant: 78.4, screening length: 5.74355 Bohr) occupying 0.700393 of unit cell:	Completed after 2 iterations at t[s]:  11307.62
	Linear fluid (dielectric constant: 78.4, screening length: 5.74355 Bohr) occupying 0.700395 of unit cell:	Completed after 0 iterations at t[s]:  11353.72
	FillingsUpdate:  mu: -0.137249298  nElectrons: 705.500000  magneticMoment: [ Abs: 0.03894  Tot: -0.03602 ]
	SubspaceRotationAdjust: set factor to 0.305
ElecMinimize: Iter:  12  F: -2983.375740710537684  |grad|_K:  4.917e-08  alpha:  4.014e-01  linmin:  4.508e-06  t[s]:  11415.05
	Linear fluid (dielectric constant: 78.4, screening length: 5.74355 Bohr) occupying 0.700384 of unit cell:	Completed after 2 iterations at t[s]:  11463.78
	Linear fluid (dielectric constant: 78.4, screening length: 5.74355 Bohr) occupying 0.700384 of unit cell:	Completed after 0 iterations at t[s]:  11509.82
	FillingsUpdate:  mu: -0.137268883  nElectrons: 705.500000  magneticMoment: [ Abs: 0.03940  Tot: -0.03645 ]
	SubspaceRotationAdjust: set factor to 0.378
ElecMinimize: Iter:  13  F: -2983.375741123745684  |grad|_K:  2.921e-08  alpha:  4.036e-01  linmin: -7.887e-06  t[s]:  11570.60
	Linear fluid (dielectric constant: 78.4, screening length: 5.74355 Bohr) occupying 0.700376 of unit cell:	Completed after 0 iterations at t[s]:  11619.07
	Linear fluid (dielectric constant: 78.4, screening length: 5.74355 Bohr) occupying 0.700374 of unit cell:	Completed after 0 iterations at t[s]:  11664.43
	FillingsUpdate:  mu: -0.137267116  nElectrons: 705.500000  magneticMoment: [ Abs: 0.03991  Tot: -0.03692 ]
	SubspaceRotationAdjust: set factor to 0.451
ElecMinimize: Iter:  14  F: -2983.375741350648241  |grad|_K:  2.063e-08  alpha:  5.477e-01  linmin: -5.052e-11  t[s]:  11725.53
	Linear fluid (dielectric constant: 78.4, screening length: 5.74355 Bohr) occupying 0.700363 of unit cell:	Completed after 2 iterations at t[s]:  11774.45
	Linear fluid (dielectric constant: 78.4, screening length: 5.74355 Bohr) occupying 0.700367 of unit cell:	Completed after 0 iterations at t[s]:  11820.83
	FillingsUpdate:  mu: -0.137296062  nElectrons: 705.500000  magneticMoment: [ Abs: 0.04027  Tot: -0.03727 ]
	SubspaceRotationAdjust: set factor to 0.439
ElecMinimize: Iter:  15  F: -2983.375741382130855  |grad|_K:  2.531e-08  alpha:  3.282e-01  linmin: -1.876e-05  t[s]:  11881.66
	Linear fluid (dielectric constant: 78.4, screening length: 5.74355 Bohr) occupying 0.700358 of unit cell:	Completed after 1 iterations at t[s]:  11930.28
	Linear fluid (dielectric constant: 78.4, screening length: 5.74355 Bohr) occupying 0.700362 of unit cell:	Completed after 0 iterations at t[s]:  11975.58
	FillingsUpdate:  mu: -0.137300640  nElectrons: 705.500000  magneticMoment: [ Abs: 0.04069  Tot: -0.03766 ]
	SubspaceRotationAdjust: set factor to 0.317
ElecMinimize: Iter:  16  F: -2983.375741448354347  |grad|_K:  1.749e-08  alpha:  1.703e-01  linmin:  3.393e-05  t[s]:  12036.42
	Linear fluid (dielectric constant: 78.4, screening length: 5.74355 Bohr) occupying 0.700360 of unit cell:	Completed after 0 iterations at t[s]:  12085.72
	Linear fluid (dielectric constant: 78.4, screening length: 5.74355 Bohr) occupying 0.700356 of unit cell:	Completed after 0 iterations at t[s]:  12130.77
	FillingsUpdate:  mu: -0.137298548  nElectrons: 705.500000  magneticMoment: [ Abs: 0.04164  Tot: -0.03855 ]
	SubspaceRotationAdjust: set factor to 0.454
ElecMinimize: Iter:  17  F: -2983.375741484400351  |grad|_K:  1.580e-08  alpha:  4.908e-01  linmin:  2.932e-06  t[s]:  12192.46
	Linear fluid (dielectric constant: 78.4, screening length: 5.74355 Bohr) occupying 0.700353 of unit cell:	Completed after 2 iterations at t[s]:  12240.86
	Linear fluid (dielectric constant: 78.4, screening length: 5.74355 Bohr) occupying 0.700356 of unit cell:	Completed after 1 iterations at t[s]:  12286.63
ElecMinimize: 	Step increased F by 1.957869e-08, reducing alpha to 9.148644e-03.
	Linear fluid (dielectric constant: 78.4, screening length: 5.74355 Bohr) occupying 0.700356 of unit cell:	Completed after 0 iterations at t[s]:  12386.10
	FillingsUpdate:  mu: -0.137270077  nElectrons: 705.500000  magneticMoment: [ Abs: 0.04166  Tot: -0.03857 ]
	SubspaceRotationAdjust: set factor to 0.278
ElecMinimize: Iter:  18  F: -2983.375741486856441  |grad|_K:  3.722e-08  alpha:  9.149e-03  linmin:  1.091e-04  t[s]:  12447.31
ElecMinimize: 	Bad step direction: g.d > 0.
ElecMinimize: 	Undoing step.
	Linear fluid (dielectric constant: 78.4, screening length: 5.74355 Bohr) occupying 0.700356 of unit cell:	Completed after 0 iterations at t[s]:  12495.88
ElecMinimize: 	Step failed: resetting search direction.
	FillingsUpdate:  mu: -0.137270077  nElectrons: 705.500000  magneticMoment: [ Abs: 0.04166  Tot: -0.03857 ]
	SubspaceRotationAdjust: set factor to 0.19
ElecMinimize: Iter:  19  F: -2983.375741486829611  |grad|_K:  3.076e-08  alpha:  0.000e+00
	Linear fluid (dielectric constant: 78.4, screening length: 5.74355 Bohr) occupying 0.700356 of unit cell:	Completed after 0 iterations at t[s]:  12605.77
ElecMinimize: 	Predicted alpha/alphaT>3.000000, increasing alphaT to 2.744593e-02.
	Linear fluid (dielectric constant: 78.4, screening length: 5.74355 Bohr) occupying 0.700356 of unit cell:	Completed after 0 iterations at t[s]:  12650.98
ElecMinimize: 	Predicted alpha/alphaT>3.000000, increasing alphaT to 8.233779e-02.
	Linear fluid (dielectric constant: 78.4, screening length: 5.74355 Bohr) occupying 0.700356 of unit cell:	Completed after 2 iterations at t[s]:  12696.33
	Linear fluid (dielectric constant: 78.4, screening length: 5.74355 Bohr) occupying 0.700356 of unit cell:	Completed after 0 iterations at t[s]:  12742.59
ElecMinimize: 	Step increased F by 2.225170e-08, reducing alpha to 3.442515e-03.
	Linear fluid (dielectric constant: 78.4, screening length: 5.74355 Bohr) occupying 0.700356 of unit cell:	Completed after 0 iterations at t[s]:  12841.27
ElecMinimize: 	Step increased F by 2.830166e-08, reducing alpha to 3.442515e-04.
	Linear fluid (dielectric constant: 78.4, screening length: 5.74355 Bohr) occupying 0.700356 of unit cell:	Completed after 0 iterations at t[s]:  12940.60
ElecMinimize: 	Step increased F by 2.903107e-08, reducing alpha to 3.442515e-05.
ElecMinimize: 	Step failed to reduce F after 3 attempts. Quitting step.
ElecMinimize: 	Undoing step.
	Linear fluid (dielectric constant: 78.4, screening length: 5.74355 Bohr) occupying 0.700356 of unit cell:	Completed after 0 iterations at t[s]:  13039.20
ElecMinimize: 	Step failed along negative gradient direction.
ElecMinimize: Probably at roundoff error limit. (Stopping)
Setting wave functions to eigenvectors of Hamiltonian
Single-point solvation energy estimate, DeltaF = -0.231950229863287

# Ionic positions in lattice coordinates:
ion C   0.166666667591666   0.083333332433333   0.566559493686356 1
ion C   0.083333334258333   0.166666665766666   0.433441779321489 1
ion C   0.416666667591666   0.083333332433333   0.566559493686356 1
ion C   0.333333334258333   0.166666665766666   0.433441779321489 1
ion C   0.666666667591666   0.083333332433333   0.566559493686356 1
ion C   0.583333334258333   0.166666665766666   0.433441779321489 1
ion C   0.916666667591666   0.083333332433333   0.566559493686356 1
ion C   0.833333334258333   0.166666665766666   0.433441779321489 1
ion C   0.166666667591666   0.333333332433333   0.566559493686356 1
ion C   0.083333334258333   0.416666665766666   0.433441779321489 1
ion C   0.416666667591666   0.333333332433333   0.566559493686356 1
ion C   0.333333334258333   0.416666665766666   0.433441779321489 1
ion C   0.666666667591666   0.333333332433333   0.566559493686356 1
ion C   0.583333334258333   0.416666665766666   0.433441779321489 1
ion C   0.916666667591666   0.333333332433333   0.566559493686356 1
ion C   0.833333334258333   0.416666665766666   0.433441779321489 1
ion C   0.166666667591666   0.583333332433333   0.566559493686356 1
ion C   0.083333334258333   0.666666665766666   0.433441779321489 1
ion C   0.416666667591666   0.583333332433333   0.566559493686356 1
ion C   0.333333334258333   0.666666665766666   0.433441779321489 1
ion C   0.666666667591666   0.583333332433333   0.566559493686356 1
ion C   0.583333334258333   0.666666665766666   0.433441779321489 1
ion C   0.916666667591666   0.583333332433333   0.566559493686356 1
ion C   0.833333334258333   0.666666665766666   0.433441779321489 1
ion C   0.166666667591666   0.833333332433333   0.566559493686356 1
ion C   0.083333334258333   0.916666665766666   0.433441779321489 1
ion C   0.416666667591666   0.833333332433333   0.566559493686356 1
ion C   0.333333334258333   0.916666665766666   0.433441779321489 1
ion C   0.666666667591666   0.833333332433333   0.566559493686356 1
ion C   0.583333334258333   0.916666665766666   0.433441779321489 1
ion C   0.916666667591666   0.833333332433333   0.566559493686356 1
ion C   0.833333334258333   0.916666665766666   0.433441779321489 1
ion Ti   0.000000000924999  -0.000000000900000   0.500000636503923 1
ion Ti   0.083333334258333   0.166666665766666   0.618882035278155 1
ion Ti   0.166666667591666   0.083333332433333   0.381119237729690 1
ion Ti   0.250000000924999  -0.000000000900000   0.500000636503923 1
ion Ti   0.333333334258333   0.166666665766666   0.618882035278155 1
ion Ti   0.416666667591666   0.083333332433333   0.381119237729690 1
ion Ti   0.500000000924999  -0.000000000900000   0.500000636503923 1
ion Ti   0.583333334258333   0.166666665766666   0.618882035278155 1
ion Ti   0.666666667591666   0.083333332433333   0.381119237729690 1
ion Ti   0.750000000924999  -0.000000000900000   0.500000636503923 1
ion Ti   0.833333334258333   0.166666665766666   0.618882035278155 1
ion Ti   0.916666667591666   0.083333332433333   0.381119237729690 1
ion Ti   1.000000000924999   0.249999999100000   0.500000636503923 1
ion Ti   0.083333334258333   0.416666665766666   0.618882035278155 1
ion Ti   0.166666667591666   0.333333332433333   0.381119237729690 1
ion Ti   0.250000000924999   0.249999999100000   0.500000636503923 1
ion Ti   0.333333334258333   0.416666665766666   0.618882035278155 1
ion Ti   0.416666667591666   0.333333332433333   0.381119237729690 1
ion Ti   0.500000000924999   0.249999999100000   0.500000636503923 1
ion Ti   0.583333334258333   0.416666665766666   0.618882035278155 1
ion Ti   0.666666667591666   0.333333332433333   0.381119237729690 1
ion Ti   0.750000000924999   0.249999999100000   0.500000636503923 1
ion Ti   0.833333334258333   0.416666665766666   0.618882035278155 1
ion Ti   0.916666667591666   0.333333332433333   0.381119237729690 1
ion Ti   1.000000000924999   0.499999999100000   0.500000636503923 1
ion Ti   0.083333334258333   0.666666665766666   0.618882035278155 1
ion Ti   0.166666667591666   0.583333332433333   0.381119237729690 1
ion Ti   0.250000000924999   0.499999999100000   0.500000636503923 1
ion Ti   0.333333334258333   0.666666665766666   0.618882035278155 1
ion Ti   0.416666667591666   0.583333332433333   0.381119237729690 1
ion Ti   0.500000000924999   0.499999999100000   0.500000636503923 1
ion Ti   0.583333334258333   0.666666665766666   0.618882035278155 1
ion Ti   0.666666667591666   0.583333332433333   0.381119237729690 1
ion Ti   0.750000000924999   0.499999999100000   0.500000636503923 1
ion Ti   0.833333334258333   0.666666665766666   0.618882035278155 1
ion Ti   0.916666667591666   0.583333332433333   0.381119237729690 1
ion Ti   1.000000000924999   0.749999999100000   0.500000636503923 1
ion Ti   0.083333334258333   0.916666665766666   0.618882035278155 1
ion Ti   0.166666667591666   0.833333332433333   0.381119237729690 1
ion Ti   0.250000000924999   0.749999999100000   0.500000636503923 1
ion Ti   0.333333334258333   0.916666665766666   0.618882035278155 1
ion Ti   0.416666667591666   0.833333332433333   0.381119237729690 1
ion Ti   0.500000000924999   0.749999999100000   0.500000636503923 1
ion Ti   0.583333334258333   0.916666665766666   0.618882035278155 1
ion Ti   0.666666667591666   0.833333332433333   0.381119237729690 1
ion Ti   0.750000000924999   0.749999999100000   0.500000636503923 1
ion Ti   0.833333334258333   0.916666665766666   0.618882035278155 1
ion Ti   0.916666667591666   0.833333332433333   0.381119237729690 1


# Forces in Lattice coordinates:
force C  -0.000000000000000  -0.000000000000000   0.018900936155489 1
force C   0.000000000000000  -0.000000000000000  -0.018900936153726 1
force C  -0.000000000000000   0.000000000000000   0.018900936155432 1
force C   0.000000000000000  -0.000000000000000  -0.018900936153726 1
force C  -0.000000000000000   0.000000000000000   0.018900936155489 1
force C   0.000000000000000  -0.000000000000000  -0.018900936153669 1
force C  -0.000000000000000   0.000000000000000   0.018900936155432 1
force C   0.000000000000000  -0.000000000000000  -0.018900936153726 1
force C  -0.000000000000000   0.000000000000000   0.018900936155488 1
force C   0.000000000000000  -0.000000000000000  -0.018900936153726 1
force C  -0.000000000000000   0.000000000000000   0.018900936155489 1
force C   0.000000000000000  -0.000000000000000  -0.018900936153726 1
force C  -0.000000000000000   0.000000000000000   0.018900936155489 1
force C   0.000000000000000  -0.000000000000000  -0.018900936153669 1
force C  -0.000000000000000   0.000000000000000   0.018900936155432 1
force C   0.000000000000000  -0.000000000000000  -0.018900936153669 1
force C  -0.000000000000000   0.000000000000000   0.018900936155432 1
force C   0.000000000000000  -0.000000000000000  -0.018900936153670 1
force C  -0.000000000000000   0.000000000000000   0.018900936155489 1
force C   0.000000000000000  -0.000000000000000  -0.018900936153726 1
force C  -0.000000000000000   0.000000000000000   0.018900936155432 1
force C   0.000000000000000  -0.000000000000000  -0.018900936153726 1
force C  -0.000000000000000   0.000000000000000   0.018900936155432 1
force C   0.000000000000000  -0.000000000000000  -0.018900936153669 1
force C  -0.000000000000000   0.000000000000000   0.018900936155489 1
force C   0.000000000000000   0.000000000000000  -0.018900936153726 1
force C  -0.000000000000000   0.000000000000000   0.018900936155489 1
force C   0.000000000000000  -0.000000000000000  -0.018900936153670 1
force C  -0.000000000000000   0.000000000000000   0.018900936155489 1
force C   0.000000000000000  -0.000000000000000  -0.018900936153726 1
force C   0.000000000000000   0.000000000000000   0.018900936155432 1
force C   0.000000000000000  -0.000000000000000  -0.018900936153726 1
force Ti   0.000000000000000   0.000000000000000  -0.000000000000000 1
force Ti   0.000000000000000  -0.000000000000000   0.063953330077525 1
force Ti  -0.000000000000000   0.000000000000000  -0.063953330080253 1
force Ti   0.000000000000000   0.000000000000000  -0.000000000000000 1
force Ti   0.000000000000000  -0.000000000000000   0.063953330077980 1
force Ti  -0.000000000000000   0.000000000000000  -0.063953330080708 1
force Ti   0.000000000000000  -0.000000000000000  -0.000000000000000 1
force Ti   0.000000000000000  -0.000000000000000   0.063953330077525 1
force Ti  -0.000000000000000   0.000000000000000  -0.063953330080253 1
force Ti   0.000000000000000   0.000000000000000   0.000000000000000 1
force Ti   0.000000000000000  -0.000000000000000   0.063953330077525 1
force Ti  -0.000000000000000   0.000000000000000  -0.063953330080253 1
force Ti   0.000000000000000  -0.000000000000000  -0.000000000000000 1
force Ti   0.000000000000000  -0.000000000000000   0.063953330077525 1
force Ti  -0.000000000000000  -0.000000000000000  -0.063953330080253 1
force Ti  -0.000000000000000  -0.000000000000000  -0.000000000000000 1
force Ti   0.000000000000000  -0.000000000000000   0.063953330077525 1
force Ti   0.000000000000000   0.000000000000000  -0.063953330080253 1
force Ti   0.000000000000000   0.000000000000000   0.000000000000000 1
force Ti   0.000000000000000   0.000000000000000   0.063953330077525 1
force Ti   0.000000000000000   0.000000000000000  -0.063953330080253 1
force Ti  -0.000000000000000  -0.000000000000000   0.000000000000000 1
force Ti  -0.000000000000000  -0.000000000000000   0.063953330077525 1
force Ti  -0.000000000000000   0.000000000000000  -0.063953330080253 1
force Ti   0.000000000000000   0.000000000000000  -0.000000000000000 1
force Ti  -0.000000000000000   0.000000000000000   0.063953330077525 1
force Ti  -0.000000000000000   0.000000000000000  -0.063953330080253 1
force Ti   0.000000000000000  -0.000000000000000  -0.000000000000000 1
force Ti   0.000000000000000   0.000000000000000   0.063953330077525 1
force Ti  -0.000000000000000   0.000000000000000  -0.063953330080253 1
force Ti   0.000000000000000   0.000000000000000   0.000000000000000 1
force Ti   0.000000000000000   0.000000000000000   0.063953330077525 1
force Ti   0.000000000000000   0.000000000000000  -0.063953330080253 1
force Ti  -0.000000000000000  -0.000000000000000   0.000000000000000 1
force Ti  -0.000000000000000  -0.000000000000000   0.063953330077525 1
force Ti  -0.000000000000000   0.000000000000000  -0.063953330080253 1
force Ti   0.000000000000000  -0.000000000000000   0.000000000000000 1
force Ti  -0.000000000000000  -0.000000000000000   0.063953330077525 1
force Ti  -0.000000000000000  -0.000000000000000  -0.063953330080253 1
force Ti   0.000000000000000   0.000000000000000  -0.000000000000000 1
force Ti   0.000000000000000  -0.000000000000000   0.063953330077525 1
force Ti   0.000000000000000  -0.000000000000000  -0.063953330080253 1
force Ti  -0.000000000000000  -0.000000000000000  -0.000000000000000 1
force Ti   0.000000000000000  -0.000000000000000   0.063953330077525 1
force Ti   0.000000000000000   0.000000000000000  -0.063953330080253 1
force Ti  -0.000000000000000  -0.000000000000000   0.000000000000000 1
force Ti   0.000000000000000  -0.000000000000000   0.063953330077525 1
force Ti   0.000000000000000  -0.000000000000000  -0.063953330080253 1

# Energy components:
   A_diel =       -0.2043567251480566
   Eewald =    27007.0763048521403107
       EH =    29557.2342156988343049
     Eloc =   -60115.2954594291659305
      Enl =      286.4862949676672770
      Exc =     -492.0479569153778812
 Exc_core =       63.9311056479802602
       KE =      709.6932184829717016
  MuShift =       -0.0304354820271678
-------------------------------------
     Etot =    -2983.1570689021268663
       TS =        0.2186725558102116
-------------------------------------
        F =    -2983.3757414579372380

IonicMinimize: Iter:   0  F: -2983.375741457937238  |grad|_K:  6.554e-04  t[s]:  13130.32

#--- Lowdin population analysis ---
# oxidation-state C -1.110 -1.110 -1.110 -1.110 -1.110 -1.110 -1.110 -1.110 -1.110 -1.110 -1.110 -1.110 -1.110 -1.110 -1.110 -1.110 -1.110 -1.110 -1.110 -1.110 -1.110 -1.110 -1.110 -1.110 -1.110 -1.110 -1.110 -1.110 -1.110 -1.110 -1.110 -1.110
# magnetic-moments C +0.000 +0.000 +0.000 +0.000 +0.000 +0.000 +0.000 +0.000 +0.000 +0.000 +0.000 +0.000 +0.000 +0.000 +0.000 +0.000 +0.000 +0.000 +0.000 +0.000 +0.000 +0.000 +0.000 +0.000 +0.000 +0.000 +0.000 +0.000 +0.000 +0.000 +0.000 +0.000
# oxidation-state Ti +1.083 +0.852 +0.852 +1.083 +0.852 +0.852 +1.083 +0.852 +0.852 +1.083 +0.852 +0.852 +1.083 +0.852 +0.852 +1.083 +0.852 +0.852 +1.083 +0.852 +0.852 +1.083 +0.852 +0.852 +1.083 +0.852 +0.852 +1.083 +0.852 +0.852 +1.083 +0.852 +0.852 +1.083 +0.852 +0.852 +1.083 +0.852 +0.852 +1.083 +0.852 +0.852 +1.083 +0.852 +0.852 +1.083 +0.852 +0.852
# magnetic-moments Ti -0.000 -0.001 -0.001 -0.000 -0.001 -0.001 -0.000 -0.001 -0.001 -0.000 -0.001 -0.001 -0.000 -0.001 -0.001 -0.000 -0.001 -0.001 -0.000 -0.001 -0.001 -0.000 -0.001 -0.001 -0.000 -0.001 -0.001 -0.000 -0.001 -0.001 -0.000 -0.001 -0.001 -0.000 -0.001 -0.001 -0.000 -0.001 -0.001 -0.000 -0.001 -0.001 -0.000 -0.001 -0.001 -0.000 -0.001 -0.001

	Linear fluid (dielectric constant: 78.4, screening length: 5.74355 Bohr) occupying 0.700362 of unit cell:	Completed after 4 iterations at t[s]:  13180.61

-------- Electronic minimization -----------
	Linear fluid (dielectric constant: 78.4, screening length: 5.74355 Bohr) occupying 0.700362 of unit cell:	Completed after 0 iterations at t[s]:  13212.49
	FillingsUpdate:  mu: -0.137029629  nElectrons: 705.500000  magneticMoment: [ Abs: 0.04343  Tot: -0.04026 ]
ElecMinimize: Iter:   0  F: -2983.375816146667603  |grad|_K:  2.432e-07  alpha:  1.000e+00
	Linear fluid (dielectric constant: 78.4, screening length: 5.74355 Bohr) occupying 0.700336 of unit cell:	Completed after 6 iterations at t[s]:  13330.15
	Linear fluid (dielectric constant: 78.4, screening length: 5.74355 Bohr) occupying 0.700349 of unit cell:	Completed after 6 iterations at t[s]:  13377.47
	FillingsUpdate:  mu: -0.137239122  nElectrons: 705.500000  magneticMoment: [ Abs: 0.04362  Tot: -0.04042 ]
	SubspaceRotationAdjust: set factor to 0.199
ElecMinimize: Iter:   1  F: -2983.375828986870602  |grad|_K:  1.428e-07  alpha:  4.778e-01  linmin:  1.131e-04  t[s]:  13439.76
	Linear fluid (dielectric constant: 78.4, screening length: 5.74355 Bohr) occupying 0.700343 of unit cell:	Completed after 1 iterations at t[s]:  13488.41
	Linear fluid (dielectric constant: 78.4, screening length: 5.74355 Bohr) occupying 0.700343 of unit cell:	Completed after 0 iterations at t[s]:  13533.95
	FillingsUpdate:  mu: -0.137267374  nElectrons: 705.500000  magneticMoment: [ Abs: 0.04386  Tot: -0.04062 ]
	SubspaceRotationAdjust: set factor to 0.226
ElecMinimize: Iter:   2  F: -2983.375833248634535  |grad|_K:  7.830e-08  alpha:  4.682e-01  linmin: -4.932e-06  t[s]:  13594.84
	Linear fluid (dielectric constant: 78.4, screening length: 5.74355 Bohr) occupying 0.700339 of unit cell:	Completed after 1 iterations at t[s]:  13644.29
	Linear fluid (dielectric constant: 78.4, screening length: 5.74355 Bohr) occupying 0.700335 of unit cell:	Completed after 2 iterations at t[s]:  13690.51
	FillingsUpdate:  mu: -0.137267955  nElectrons: 705.500000  magneticMoment: [ Abs: 0.04440  Tot: -0.04109 ]
	SubspaceRotationAdjust: set factor to 0.293
ElecMinimize: Iter:   3  F: -2983.375835930588437  |grad|_K:  7.596e-08  alpha:  9.824e-01  linmin:  1.957e-06  t[s]:  13752.46
	Linear fluid (dielectric constant: 78.4, screening length: 5.74355 Bohr) occupying 0.700321 of unit cell:	Completed after 2 iterations at t[s]:  13800.47
	Linear fluid (dielectric constant: 78.4, screening length: 5.74355 Bohr) occupying 0.700322 of unit cell:	Completed after 0 iterations at t[s]:  13846.00
	FillingsUpdate:  mu: -0.137335049  nElectrons: 705.500000  magneticMoment: [ Abs: 0.04526  Tot: -0.04186 ]
	SubspaceRotationAdjust: set factor to 0.31
ElecMinimize: Iter:   4  F: -2983.375838240609482  |grad|_K:  7.050e-08  alpha:  8.893e-01  linmin:  6.765e-05  t[s]:  13907.01
	Linear fluid (dielectric constant: 78.4, screening length: 5.74355 Bohr) occupying 0.700315 of unit cell:	Completed after 2 iterations at t[s]:  13955.60
	Linear fluid (dielectric constant: 78.4, screening length: 5.74355 Bohr) occupying 0.700318 of unit cell:	Completed after 1 iterations at t[s]:  14001.47
	FillingsUpdate:  mu: -0.137331111  nElectrons: 705.500000  magneticMoment: [ Abs: 0.04598  Tot: -0.04253 ]
	SubspaceRotationAdjust: set factor to 0.319
ElecMinimize: Iter:   5  F: -2983.375839330926738  |grad|_K:  3.820e-08  alpha:  5.087e-01  linmin:  7.679e-05  t[s]:  14063.33
	Linear fluid (dielectric constant: 78.4, screening length: 5.74355 Bohr) occupying 0.700319 of unit cell:	Completed after 2 iterations at t[s]:  14112.54
	Linear fluid (dielectric constant: 78.4, screening length: 5.74355 Bohr) occupying 0.700319 of unit cell:	Completed after 0 iterations at t[s]:  14158.79
	FillingsUpdate:  mu: -0.137320138  nElectrons: 705.500000  magneticMoment: [ Abs: 0.04639  Tot: -0.04291 ]
	SubspaceRotationAdjust: set factor to 0.334
ElecMinimize: Iter:   6  F: -2983.375839561383600  |grad|_K:  2.086e-08  alpha:  3.869e-01  linmin: -7.547e-05  t[s]:  14219.75
	Linear fluid (dielectric constant: 78.4, screening length: 5.74355 Bohr) occupying 0.700319 of unit cell:	Completed after 0 iterations at t[s]:  14268.18
	Linear fluid (dielectric constant: 78.4, screening length: 5.74355 Bohr) occupying 0.700320 of unit cell:	Completed after 0 iterations at t[s]:  14313.64
	FillingsUpdate:  mu: -0.137320653  nElectrons: 705.500000  magneticMoment: [ Abs: 0.04709  Tot: -0.04357 ]
	SubspaceRotationAdjust: set factor to 0.39
ElecMinimize: Iter:   7  F: -2983.375839710442051  |grad|_K:  1.417e-08  alpha:  7.269e-01  linmin:  1.741e-06  t[s]:  14374.15
	Linear fluid (dielectric constant: 78.4, screening length: 5.74355 Bohr) occupying 0.700322 of unit cell:	Completed after 3 iterations at t[s]:  14423.58
	Linear fluid (dielectric constant: 78.4, screening length: 5.74355 Bohr) occupying 0.700321 of unit cell:	Completed after 0 iterations at t[s]:  14469.72
ElecMinimize: 	Step increased F by 2.444904e-08, reducing alpha to 1.854234e-02.
	Linear fluid (dielectric constant: 78.4, screening length: 5.74355 Bohr) occupying 0.700320 of unit cell:	Completed after 0 iterations at t[s]:  14569.53
ElecMinimize: 	Step increased F by 8.187271e-09, reducing alpha to 1.854234e-03.
	Linear fluid (dielectric constant: 78.4, screening length: 5.74355 Bohr) occupying 0.700320 of unit cell:	Completed after 0 iterations at t[s]:  14668.41
ElecMinimize: 	Step increased F by 6.905793e-09, reducing alpha to 1.854234e-04.
ElecMinimize: 	Step failed to reduce F after 3 attempts. Quitting step.
ElecMinimize: 	Undoing step.
	Linear fluid (dielectric constant: 78.4, screening length: 5.74355 Bohr) occupying 0.700320 of unit cell:	Completed after 0 iterations at t[s]:  14768.25
ElecMinimize: 	Step failed: resetting search direction.
	FillingsUpdate:  mu: -0.137279374  nElectrons: 705.500000  magneticMoment: [ Abs: 0.04709  Tot: -0.04357 ]
	SubspaceRotationAdjust: set factor to 0.28
ElecMinimize: Iter:   8  F: -2983.375839703579004  |grad|_K:  4.035e-08  alpha:  1.854e-04
	Linear fluid (dielectric constant: 78.4, screening length: 5.74355 Bohr) occupying 0.700315 of unit cell:	Completed after 2 iterations at t[s]:  14877.50
	Linear fluid (dielectric constant: 78.4, screening length: 5.74355 Bohr) occupying 0.700319 of unit cell:	Completed after 2 iterations at t[s]:  14923.62
ElecMinimize: 	Step increased F by 9.778887e-09, reducing alpha to 1.419494e-02.
	Linear fluid (dielectric constant: 78.4, screening length: 5.74355 Bohr) occupying 0.700320 of unit cell:	Completed after 2 iterations at t[s]:  15023.46
ElecMinimize: 	Step increased F by 2.655543e-08, reducing alpha to 1.419494e-03.
	Linear fluid (dielectric constant: 78.4, screening length: 5.74355 Bohr) occupying 0.700320 of unit cell:	Completed after 0 iterations at t[s]:  15121.79
ElecMinimize: 	Step increased F by 3.297646e-08, reducing alpha to 1.419494e-04.
ElecMinimize: 	Step failed to reduce F after 3 attempts. Quitting step.
ElecMinimize: 	Undoing step.
	Linear fluid (dielectric constant: 78.4, screening length: 5.74355 Bohr) occupying 0.700320 of unit cell:	Completed after 0 iterations at t[s]:  15220.03
ElecMinimize: 	Step failed along negative gradient direction.
ElecMinimize: Probably at roundoff error limit. (Stopping)
Setting wave functions to eigenvectors of Hamiltonian

# Ionic positions in lattice coordinates:
ion C   0.166666667591666   0.083333332433333   0.566573184113616 1
ion C   0.083333334258333   0.166666665766666   0.433428088894230 1
ion C   0.416666667591666   0.083333332433333   0.566573184113616 1
ion C   0.333333334258333   0.166666665766666   0.433428088894230 1
ion C   0.666666667591666   0.083333332433333   0.566573184113616 1
ion C   0.583333334258333   0.166666665766666   0.433428088894230 1
ion C   0.916666667591666   0.083333332433333   0.566573184113616 1
ion C   0.833333334258333   0.166666665766666   0.433428088894230 1
ion C   0.166666667591666   0.333333332433333   0.566573184113616 1
ion C   0.083333334258333   0.416666665766666   0.433428088894230 1
ion C   0.416666667591666   0.333333332433333   0.566573184113616 1
ion C   0.333333334258333   0.416666665766666   0.433428088894230 1
ion C   0.666666667591666   0.333333332433333   0.566573184113616 1
ion C   0.583333334258333   0.416666665766666   0.433428088894230 1
ion C   0.916666667591666   0.333333332433333   0.566573184113616 1
ion C   0.833333334258333   0.416666665766666   0.433428088894230 1
ion C   0.166666667591666   0.583333332433333   0.566573184113616 1
ion C   0.083333334258333   0.666666665766666   0.433428088894230 1
ion C   0.416666667591666   0.583333332433333   0.566573184113616 1
ion C   0.333333334258333   0.666666665766666   0.433428088894230 1
ion C   0.666666667591666   0.583333332433333   0.566573184113616 1
ion C   0.583333334258333   0.666666665766666   0.433428088894230 1
ion C   0.916666667591666   0.583333332433333   0.566573184113616 1
ion C   0.833333334258333   0.666666665766666   0.433428088894230 1
ion C   0.166666667591666   0.833333332433333   0.566573184113616 1
ion C   0.083333334258333   0.916666665766666   0.433428088894230 1
ion C   0.416666667591666   0.833333332433333   0.566573184113616 1
ion C   0.333333334258333   0.916666665766666   0.433428088894230 1
ion C   0.666666667591666   0.833333332433333   0.566573184113616 1
ion C   0.583333334258333   0.916666665766666   0.433428088894230 1
ion C   0.916666667591666   0.833333332433333   0.566573184113616 1
ion C   0.833333334258333   0.916666665766666   0.433428088894230 1
ion Ti   0.000000000924999  -0.000000000900000   0.500000636503923 1
ion Ti   0.083333334258333   0.166666665766666   0.618928358296564 1
ion Ti   0.166666667591666   0.083333332433333   0.381072914711282 1
ion Ti   0.250000000924999  -0.000000000900000   0.500000636503923 1
ion Ti   0.333333334258333   0.166666665766666   0.618928358296564 1
ion Ti   0.416666667591666   0.083333332433333   0.381072914711282 1
ion Ti   0.500000000924999  -0.000000000900000   0.500000636503923 1
ion Ti   0.583333334258333   0.166666665766666   0.618928358296564 1
ion Ti   0.666666667591666   0.083333332433333   0.381072914711282 1
ion Ti   0.750000000924999  -0.000000000900000   0.500000636503923 1
ion Ti   0.833333334258333   0.166666665766666   0.618928358296564 1
ion Ti   0.916666667591666   0.083333332433333   0.381072914711282 1
ion Ti   1.000000000924999   0.249999999100000   0.500000636503923 1
ion Ti   0.083333334258333   0.416666665766666   0.618928358296564 1
ion Ti   0.166666667591666   0.333333332433333   0.381072914711282 1
ion Ti   0.250000000924999   0.249999999100000   0.500000636503923 1
ion Ti   0.333333334258333   0.416666665766666   0.618928358296564 1
ion Ti   0.416666667591666   0.333333332433333   0.381072914711282 1
ion Ti   0.500000000924999   0.249999999100000   0.500000636503923 1
ion Ti   0.583333334258333   0.416666665766666   0.618928358296564 1
ion Ti   0.666666667591666   0.333333332433333   0.381072914711282 1
ion Ti   0.750000000924999   0.249999999100000   0.500000636503923 1
ion Ti   0.833333334258333   0.416666665766666   0.618928358296564 1
ion Ti   0.916666667591666   0.333333332433333   0.381072914711282 1
ion Ti   1.000000000924999   0.499999999100000   0.500000636503923 1
ion Ti   0.083333334258333   0.666666665766666   0.618928358296564 1
ion Ti   0.166666667591666   0.583333332433333   0.381072914711282 1
ion Ti   0.250000000924999   0.499999999100000   0.500000636503923 1
ion Ti   0.333333334258333   0.666666665766666   0.618928358296564 1
ion Ti   0.416666667591666   0.583333332433333   0.381072914711282 1
ion Ti   0.500000000924999   0.499999999100000   0.500000636503923 1
ion Ti   0.583333334258333   0.666666665766666   0.618928358296564 1
ion Ti   0.666666667591666   0.583333332433333   0.381072914711282 1
ion Ti   0.750000000924999   0.499999999100000   0.500000636503923 1
ion Ti   0.833333334258333   0.666666665766666   0.618928358296564 1
ion Ti   0.916666667591666   0.583333332433333   0.381072914711282 1
ion Ti   1.000000000924999   0.749999999100000   0.500000636503923 1
ion Ti   0.083333334258333   0.916666665766666   0.618928358296564 1
ion Ti   0.166666667591666   0.833333332433333   0.381072914711282 1
ion Ti   0.250000000924999   0.749999999100000   0.500000636503923 1
ion Ti   0.333333334258333   0.916666665766666   0.618928358296564 1
ion Ti   0.416666667591666   0.833333332433333   0.381072914711282 1
ion Ti   0.500000000924999   0.749999999100000   0.500000636503923 1
ion Ti   0.583333334258333   0.916666665766666   0.618928358296564 1
ion Ti   0.666666667591666   0.833333332433333   0.381072914711282 1
ion Ti   0.750000000924999   0.749999999100000   0.500000636503923 1
ion Ti   0.833333334258333   0.916666665766666   0.618928358296564 1
ion Ti   0.916666667591666   0.833333332433333   0.381072914711282 1


# Forces in Lattice coordinates:
force C  -0.000000000000000  -0.000000000000000   0.020390335060523 1
force C   0.000000000000000  -0.000000000000000  -0.020390335060637 1
force C  -0.000000000000000   0.000000000000000   0.020390335060523 1
force C   0.000000000000000   0.000000000000000  -0.020390335060637 1
force C  -0.000000000000000   0.000000000000000   0.020390335060523 1
force C   0.000000000000000  -0.000000000000000  -0.020390335060637 1
force C  -0.000000000000000   0.000000000000000   0.020390335060523 1
force C   0.000000000000000   0.000000000000000  -0.020390335060637 1
force C  -0.000000000000000  -0.000000000000000   0.020390335060523 1
force C   0.000000000000000  -0.000000000000000  -0.020390335060637 1
force C  -0.000000000000000  -0.000000000000000   0.020390335060523 1
force C   0.000000000000000  -0.000000000000000  -0.020390335060637 1
force C  -0.000000000000000   0.000000000000000   0.020390335060523 1
force C  -0.000000000000000  -0.000000000000000  -0.020390335060637 1
force C  -0.000000000000000   0.000000000000000   0.020390335060523 1
force C   0.000000000000000  -0.000000000000000  -0.020390335060637 1
force C  -0.000000000000000   0.000000000000000   0.020390335060523 1
force C   0.000000000000000  -0.000000000000000  -0.020390335060637 1
force C  -0.000000000000000   0.000000000000000   0.020390335060523 1
force C   0.000000000000000  -0.000000000000000  -0.020390335060637 1
force C  -0.000000000000000   0.000000000000000   0.020390335060523 1
force C  -0.000000000000000  -0.000000000000000  -0.020390335060637 1
[...]
	SubspaceRotationAdjust: set factor to 0.469
ElecMinimize: Iter:   6  F: -2983.376254533583960  |grad|_K:  1.313e-07  alpha:  5.576e-01  linmin:  3.134e-05  t[s]:  16396.11
	Linear fluid (dielectric constant: 78.4, screening length: 5.74355 Bohr) occupying 0.700033 of unit cell:	Completed after 2 iterations at t[s]:  16443.39
	Linear fluid (dielectric constant: 78.4, screening length: 5.74355 Bohr) occupying 0.700035 of unit cell:	Completed after 2 iterations at t[s]:  16490.75
	FillingsUpdate:  mu: -0.137289968  nElectrons: 705.500000  magneticMoment: [ Abs: 0.05327  Tot: -0.04928 ]
	SubspaceRotationAdjust: set factor to 0.356
ElecMinimize: Iter:   7  F: -2983.376257371524844  |grad|_K:  9.687e-08  alpha:  3.746e-01  linmin:  5.555e-05  t[s]:  16551.64
	Linear fluid (dielectric constant: 78.4, screening length: 5.74355 Bohr) occupying 0.700027 of unit cell:	Completed after 3 iterations at t[s]:  16599.35
	Linear fluid (dielectric constant: 78.4, screening length: 5.74355 Bohr) occupying 0.700029 of unit cell:	Completed after 1 iterations at t[s]:  16645.03
	FillingsUpdate:  mu: -0.137337340  nElectrons: 705.500000  magneticMoment: [ Abs: 0.05379  Tot: -0.04977 ]
	SubspaceRotationAdjust: set factor to 0.214
ElecMinimize: Iter:   8  F: -2983.376258457848508  |grad|_K:  6.075e-08  alpha:  2.657e-01  linmin:  9.205e-05  t[s]:  16705.79
	Linear fluid (dielectric constant: 78.4, screening length: 5.74355 Bohr) occupying 0.700027 of unit cell:	Completed after 1 iterations at t[s]:  16754.09
	Linear fluid (dielectric constant: 78.4, screening length: 5.74355 Bohr) occupying 0.700026 of unit cell:	Completed after 0 iterations at t[s]:  16799.21
	FillingsUpdate:  mu: -0.137338681  nElectrons: 705.500000  magneticMoment: [ Abs: 0.05451  Tot: -0.05044 ]
	SubspaceRotationAdjust: set factor to 0.329
ElecMinimize: Iter:   9  F: -2983.376259200240838  |grad|_K:  3.679e-08  alpha:  4.404e-01  linmin: -1.948e-04  t[s]:  16859.90
	Linear fluid (dielectric constant: 78.4, screening length: 5.74355 Bohr) occupying 0.700026 of unit cell:	Completed after 2 iterations at t[s]:  16907.77
	Linear fluid (dielectric constant: 78.4, screening length: 5.74355 Bohr) occupying 0.700026 of unit cell:	Completed after 0 iterations at t[s]:  16953.33
	FillingsUpdate:  mu: -0.137311626  nElectrons: 705.500000  magneticMoment: [ Abs: 0.05474  Tot: -0.05066 ]
	SubspaceRotationAdjust: set factor to 0.272
ElecMinimize: Iter:  10  F: -2983.376259287784251  |grad|_K:  4.890e-08  alpha:  2.107e-01  linmin:  2.366e-04  t[s]:  17013.85
	Linear fluid (dielectric constant: 78.4, screening length: 5.74355 Bohr) occupying 0.700026 of unit cell:	Completed after 1 iterations at t[s]:  17062.51
	Linear fluid (dielectric constant: 78.4, screening length: 5.74355 Bohr) occupying 0.700026 of unit cell:	Completed after 0 iterations at t[s]:  17108.22
	FillingsUpdate:  mu: -0.137296083  nElectrons: 705.500000  magneticMoment: [ Abs: 0.05510  Tot: -0.05099 ]
	SubspaceRotationAdjust: set factor to 0.365
ElecMinimize: Iter:  11  F: -2983.376259363273221  |grad|_K:  2.543e-08  alpha:  1.280e-01  linmin: -1.485e-04  t[s]:  17169.07
	Linear fluid (dielectric constant: 78.4, screening length: 5.74355 Bohr) occupying 0.700025 of unit cell:	Completed after 0 iterations at t[s]:  17217.81
ElecMinimize: 	Predicted alpha/alphaT>3.000000, increasing alphaT to 3.839704e-01.
	Linear fluid (dielectric constant: 78.4, screening length: 5.74355 Bohr) occupying 0.700024 of unit cell:	Completed after 2 iterations at t[s]:  17262.67
	Linear fluid (dielectric constant: 78.4, screening length: 5.74355 Bohr) occupying 0.700025 of unit cell:	Completed after 0 iterations at t[s]:  17309.11
	FillingsUpdate:  mu: -0.137301458  nElectrons: 705.500000  magneticMoment: [ Abs: 0.05543  Tot: -0.05130 ]
	SubspaceRotationAdjust: set factor to 0.277
ElecMinimize: Iter:  12  F: -2983.376259442101400  |grad|_K:  2.168e-08  alpha:  2.295e-01  linmin:  2.685e-04  t[s]:  17369.70
	Linear fluid (dielectric constant: 78.4, screening length: 5.74355 Bohr) occupying 0.700024 of unit cell:	Completed after 0 iterations at t[s]:  17418.21
	Linear fluid (dielectric constant: 78.4, screening length: 5.74355 Bohr) occupying 0.700023 of unit cell:	Completed after 0 iterations at t[s]:  17463.30
	FillingsUpdate:  mu: -0.137302663  nElectrons: 705.500000  magneticMoment: [ Abs: 0.05612  Tot: -0.05193 ]
	SubspaceRotationAdjust: set factor to 0.351
ElecMinimize: Iter:  13  F: -2983.376259485548871  |grad|_K:  1.778e-08  alpha:  3.552e-01  linmin:  1.101e-05  t[s]:  17524.04
	Linear fluid (dielectric constant: 78.4, screening length: 5.74355 Bohr) occupying 0.700022 of unit cell:	Completed after 1 iterations at t[s]:  17572.43
	Linear fluid (dielectric constant: 78.4, screening length: 5.74355 Bohr) occupying 0.700023 of unit cell:	Completed after 0 iterations at t[s]:  17617.93
ElecMinimize: 	Step increased F by 1.079434e-08, reducing alpha to 1.012997e-02.
	Linear fluid (dielectric constant: 78.4, screening length: 5.74355 Bohr) occupying 0.700023 of unit cell:	Completed after 0 iterations at t[s]:  17716.24
	FillingsUpdate:  mu: -0.137313640  nElectrons: 705.500000  magneticMoment: [ Abs: 0.05614  Tot: -0.05195 ]
	SubspaceRotationAdjust: set factor to 0.271
ElecMinimize: Iter:  14  F: -2983.376259493025827  |grad|_K:  2.355e-08  alpha:  1.013e-02  linmin:  2.109e-04  t[s]:  17776.88
	Linear fluid (dielectric constant: 78.4, screening length: 5.74355 Bohr) occupying 0.700023 of unit cell:	Completed after 0 iterations at t[s]:  17825.27
ElecMinimize: 	Predicted alpha/alphaT>3.000000, increasing alphaT to 3.038990e-02.
	Linear fluid (dielectric constant: 78.4, screening length: 5.74355 Bohr) occupying 0.700023 of unit cell:	Completed after 0 iterations at t[s]:  17869.43
ElecMinimize: 	Predicted alpha/alphaT>3.000000, increasing alphaT to 9.116969e-02.
	Linear fluid (dielectric constant: 78.4, screening length: 5.74355 Bohr) occupying 0.700023 of unit cell:	Completed after 0 iterations at t[s]:  17914.21
	Linear fluid (dielectric constant: 78.4, screening length: 5.74355 Bohr) occupying 0.700023 of unit cell:	Completed after 0 iterations at t[s]:  17959.28
	FillingsUpdate:  mu: -0.137313669  nElectrons: 705.500000  magneticMoment: [ Abs: 0.05660  Tot: -0.05238 ]
	SubspaceRotationAdjust: set factor to 0.246
ElecMinimize: Iter:  15  F: -2983.376259502535504  |grad|_K:  2.047e-08  alpha:  1.039e-01  linmin: -1.043e-06  t[s]:  18019.50
ElecMinimize: Converged (|Delta F|<1.000000e-08 for 2 iters).
Setting wave functions to eigenvectors of Hamiltonian

# Ionic positions in lattice coordinates:
ion C   0.166666667591666   0.083333332433333   0.566812349019130 1
ion C   0.083333334258333   0.166666665766666   0.433188923988716 1
ion C   0.416666667591666   0.083333332433333   0.566812349019130 1
ion C   0.333333334258333   0.166666665766666   0.433188923988716 1
ion C   0.666666667591666   0.083333332433333   0.566812349019130 1
ion C   0.583333334258333   0.166666665766666   0.433188923988716 1
ion C   0.916666667591666   0.083333332433333   0.566812349019130 1
ion C   0.833333334258333   0.166666665766666   0.433188923988716 1
ion C   0.166666667591666   0.333333332433333   0.566812349019130 1
ion C   0.083333334258333   0.416666665766666   0.433188923988716 1
ion C   0.416666667591666   0.333333332433333   0.566812349019130 1
ion C   0.333333334258333   0.416666665766666   0.433188923988716 1
ion C   0.666666667591666   0.333333332433333   0.566812349019130 1
ion C   0.583333334258333   0.416666665766666   0.433188923988716 1
ion C   0.916666667591666   0.333333332433333   0.566812349019130 1
ion C   0.833333334258333   0.416666665766666   0.433188923988716 1
ion C   0.166666667591666   0.583333332433333   0.566812349019130 1
ion C   0.083333334258333   0.666666665766666   0.433188923988716 1
ion C   0.416666667591666   0.583333332433333   0.566812349019130 1
ion C   0.333333334258333   0.666666665766666   0.433188923988716 1
ion C   0.666666667591666   0.583333332433333   0.566812349019130 1
ion C   0.583333334258333   0.666666665766666   0.433188923988716 1
ion C   0.916666667591666   0.583333332433333   0.566812349019130 1
ion C   0.833333334258333   0.666666665766666   0.433188923988716 1
ion C   0.166666667591666   0.833333332433333   0.566812349019130 1
ion C   0.083333334258333   0.916666665766666   0.433188923988716 1
ion C   0.416666667591666   0.833333332433333   0.566812349019130 1
ion C   0.333333334258333   0.916666665766666   0.433188923988716 1
ion C   0.666666667591666   0.833333332433333   0.566812349019130 1
ion C   0.583333334258333   0.916666665766666   0.433188923988716 1
ion C   0.916666667591666   0.833333332433333   0.566812349019130 1
ion C   0.833333334258333   0.916666665766666   0.433188923988716 1
ion Ti   0.000000000924999  -0.000000000900000   0.500000636503923 1
ion Ti   0.083333334258333   0.166666665766666   0.619249878784305 1
ion Ti   0.166666667591666   0.083333332433333   0.380751394223540 1
ion Ti   0.250000000924999  -0.000000000900000   0.500000636503923 1
ion Ti   0.333333334258333   0.166666665766666   0.619249878784305 1
ion Ti   0.416666667591666   0.083333332433333   0.380751394223540 1
ion Ti   0.500000000924999  -0.000000000900000   0.500000636503923 1
ion Ti   0.583333334258333   0.166666665766666   0.619249878784305 1
ion Ti   0.666666667591666   0.083333332433333   0.380751394223540 1
ion Ti   0.750000000924999  -0.000000000900000   0.500000636503923 1
ion Ti   0.833333334258333   0.166666665766666   0.619249878784305 1
ion Ti   0.916666667591666   0.083333332433333   0.380751394223540 1
ion Ti   1.000000000924999   0.249999999100000   0.500000636503923 1
ion Ti   0.083333334258333   0.416666665766666   0.619249878784305 1
ion Ti   0.166666667591666   0.333333332433333   0.380751394223540 1
ion Ti   0.250000000924999   0.249999999100000   0.500000636503923 1
ion Ti   0.333333334258333   0.416666665766666   0.619249878784305 1
ion Ti   0.416666667591666   0.333333332433333   0.380751394223540 1
ion Ti   0.500000000924999   0.249999999100000   0.500000636503923 1
ion Ti   0.583333334258333   0.416666665766666   0.619249878784305 1
ion Ti   0.666666667591666   0.333333332433333   0.380751394223540 1
ion Ti   0.750000000924999   0.249999999100000   0.500000636503923 1
ion Ti   0.833333334258333   0.416666665766666   0.619249878784305 1
ion Ti   0.916666667591666   0.333333332433333   0.380751394223540 1
ion Ti   1.000000000924999   0.499999999100000   0.500000636503923 1
ion Ti   0.083333334258333   0.666666665766666   0.619249878784305 1
ion Ti   0.166666667591666   0.583333332433333   0.380751394223540 1
ion Ti   0.250000000924999   0.499999999100000   0.500000636503923 1
ion Ti   0.333333334258333   0.666666665766666   0.619249878784305 1
ion Ti   0.416666667591666   0.583333332433333   0.380751394223540 1
ion Ti   0.500000000924999   0.499999999100000   0.500000636503923 1
ion Ti   0.583333334258333   0.666666665766666   0.619249878784305 1
ion Ti   0.666666667591666   0.583333332433333   0.380751394223540 1
ion Ti   0.750000000924999   0.499999999100000   0.500000636503923 1
ion Ti   0.833333334258333   0.666666665766666   0.619249878784305 1
ion Ti   0.916666667591666   0.583333332433333   0.380751394223540 1
ion Ti   1.000000000924999   0.749999999100000   0.500000636503923 1
ion Ti   0.083333334258333   0.916666665766666   0.619249878784305 1
ion Ti   0.166666667591666   0.833333332433333   0.380751394223540 1
ion Ti   0.250000000924999   0.749999999100000   0.500000636503923 1
ion Ti   0.333333334258333   0.916666665766666   0.619249878784305 1
ion Ti   0.416666667591666   0.833333332433333   0.380751394223540 1
ion Ti   0.500000000924999   0.749999999100000   0.500000636503923 1
ion Ti   0.583333334258333   0.916666665766666   0.619249878784305 1
ion Ti   0.666666667591666   0.833333332433333   0.380751394223540 1
ion Ti   0.750000000924999   0.749999999100000   0.500000636503923 1
ion Ti   0.833333334258333   0.916666665766666   0.619249878784305 1
ion Ti   0.916666667591666   0.833333332433333   0.380751394223540 1


# Forces in Lattice coordinates:
force C   0.000000000000000  -0.000000000000000   0.000474371043363 1
force C   0.000000000000000  -0.000000000000000  -0.000474371043022 1
force C  -0.000000000000000   0.000000000000000   0.000474371043420 1
force C   0.000000000000000  -0.000000000000000  -0.000474371043022 1
force C  -0.000000000000000   0.000000000000000   0.000474371043420 1
force C  -0.000000000000000   0.000000000000000  -0.000474371042909 1
force C   0.000000000000000   0.000000000000000   0.000474371043420 1
force C  -0.000000000000000   0.000000000000000  -0.000474371043022 1
force C  -0.000000000000000   0.000000000000000   0.000474371043420 1
force C   0.000000000000000   0.000000000000000  -0.000474371043022 1
force C  -0.000000000000000   0.000000000000000   0.000474371043420 1
force C   0.000000000000000  -0.000000000000000  -0.000474371042966 1
force C   0.000000000000000  -0.000000000000000   0.000474371043420 1
force C   0.000000000000000   0.000000000000000  -0.000474371042909 1
force C  -0.000000000000000  -0.000000000000000   0.000474371043477 1
force C   0.000000000000000  -0.000000000000000  -0.000474371042966 1
force C  -0.000000000000000   0.000000000000000   0.000474371043420 1
force C   0.000000000000000   0.000000000000000  -0.000474371043022 1
force C  -0.000000000000000  -0.000000000000000   0.000474371043477 1
force C  -0.000000000000000   0.000000000000000  -0.000474371042966 1
force C  -0.000000000000000  -0.000000000000000   0.000474371043420 1
force C  -0.000000000000000  -0.000000000000000  -0.000474371042909 1
force C   0.000000000000000  -0.000000000000000   0.000474371043420 1
force C  -0.000000000000000  -0.000000000000000  -0.000474371042966 1
force C  -0.000000000000000  -0.000000000000000   0.000474371043420 1
force C  -0.000000000000000  -0.000000000000000  -0.000474371043079 1
force C  -0.000000000000000   0.000000000000000   0.000474371043420 1
force C   0.000000000000000   0.000000000000000  -0.000474371042966 1
force C   0.000000000000000   0.000000000000000   0.000474371043420 1
force C  -0.000000000000000   0.000000000000000  -0.000474371042909 1
force C   0.000000000000000   0.000000000000000   0.000474371043477 1
force C   0.000000000000000   0.000000000000000  -0.000474371042966 1
force Ti  -0.000000000000000   0.000000000000000  -0.000000000000000 1
force Ti   0.000000000000000  -0.000000000000000   0.009735742886368 1
force Ti  -0.000000000000000   0.000000000000000  -0.009735742881820 1
force Ti   0.000000000000000   0.000000000000000  -0.000000000000000 1
force Ti   0.000000000000000   0.000000000000000   0.009735742886368 1
force Ti  -0.000000000000000   0.000000000000000  -0.009735742881820 1
force Ti   0.000000000000000  -0.000000000000000   0.000000000000000 1
force Ti   0.000000000000000   0.000000000000000   0.009735742886368 1
force Ti  -0.000000000000000   0.000000000000000  -0.009735742881820 1
force Ti   0.000000000000000   0.000000000000000  -0.000000000000000 1
force Ti  -0.000000000000000  -0.000000000000000   0.009735742886368 1
force Ti  -0.000000000000000   0.000000000000000  -0.009735742881820 1
force Ti  -0.000000000000000  -0.000000000000000  -0.000000000000000 1
force Ti   0.000000000000000  -0.000000000000000   0.009735742886368 1
force Ti  -0.000000000000000   0.000000000000000  -0.009735742881820 1
force Ti   0.000000000000000   0.000000000000000  -0.000000000000000 1
force Ti   0.000000000000000   0.000000000000000   0.009735742886368 1
force Ti  -0.000000000000000   0.000000000000000  -0.009735742881820 1
force Ti   0.000000000000000   0.000000000000000   0.000000000000000 1
force Ti  -0.000000000000000  -0.000000000000000   0.009735742886368 1
force Ti  -0.000000000000000   0.000000000000000  -0.009735742881820 1
force Ti   0.000000000000000   0.000000000000000   0.000000000000000 1
force Ti  -0.000000000000000  -0.000000000000000   0.009735742886368 1
force Ti  -0.000000000000000   0.000000000000000  -0.009735742881820 1
force Ti  -0.000000000000000   0.000000000000000  -0.000000000000000 1
force Ti   0.000000000000000  -0.000000000000000   0.009735742886368 1
force Ti   0.000000000000000   0.000000000000000  -0.009735742881820 1
force Ti  -0.000000000000000   0.000000000000000  -0.000000000000000 1
force Ti   0.000000000000000  -0.000000000000000   0.009735742886368 1
force Ti   0.000000000000000   0.000000000000000  -0.009735742881820 1
force Ti   0.000000000000000   0.000000000000000   0.000000000000000 1
force Ti   0.000000000000000  -0.000000000000000   0.009735742886368 1
force Ti  -0.000000000000000  -0.000000000000000  -0.009735742881820 1
force Ti  -0.000000000000000   0.000000000000000   0.000000000000000 1
force Ti  -0.000000000000000  -0.000000000000000   0.009735742886368 1
force Ti  -0.000000000000000   0.000000000000000  -0.009735742881820 1
force Ti   0.000000000000000  -0.000000000000000   0.000000000000000 1
force Ti   0.000000000000000  -0.000000000000000   0.009735742886368 1
force Ti  -0.000000000000000   0.000000000000000  -0.009735742881820 1
force Ti  -0.000000000000000   0.000000000000000  -0.000000000000000 1
force Ti   0.000000000000000  -0.000000000000000   0.009735742886368 1
force Ti  -0.000000000000000   0.000000000000000  -0.009735742881820 1
force Ti   0.000000000000000  -0.000000000000000   0.000000000000000 1
force Ti  -0.000000000000000  -0.000000000000000   0.009735742886368 1
force Ti  -0.000000000000000   0.000000000000000  -0.009735742881820 1
force Ti  -0.000000000000000  -0.000000000000000   0.000000000000000 1
force Ti   0.000000000000000  -0.000000000000000   0.009735742886368 1
force Ti  -0.000000000000000   0.000000000000000  -0.009735742881820 1

# Energy components:
   A_diel =       -0.2043173395778905
   Eewald =    26973.9820995439804392
       EH =    29523.9673546291815001
     Eloc =   -60048.7683779369181138
      Enl =      286.4628690162799671
      Exc =     -491.9650749635700322
 Exc_core =       63.9312332586917904
       KE =      709.4676905521750996
  MuShift =       -0.0304354820271678
-------------------------------------
     Etot =    -2983.1569587217863955
       TS =        0.2193007807490629
-------------------------------------
        F =    -2983.3762595025355040

IonicMinimize: Iter:   2  F: -2983.376259502535504  |grad|_K:  9.579e-05  alpha:  1.000e+00  linmin: -8.305e-01  t[s]:  18048.72
IonicMinimize: Converged (|grad|_K<1.000000e-04).

#--- Lowdin population analysis ---
# oxidation-state C -1.111 -1.111 -1.111 -1.111 -1.111 -1.111 -1.111 -1.111 -1.111 -1.111 -1.111 -1.111 -1.111 -1.111 -1.111 -1.111 -1.111 -1.111 -1.111 -1.111 -1.111 -1.111 -1.111 -1.111 -1.111 -1.111 -1.111 -1.111 -1.111 -1.111 -1.111 -1.111
# magnetic-moments C +0.000 +0.000 +0.000 +0.000 +0.000 +0.000 +0.000 +0.000 +0.000 +0.000 +0.000 +0.000 +0.000 +0.000 +0.000 +0.000 +0.000 +0.000 +0.000 +0.000 +0.000 +0.000 +0.000 +0.000 +0.000 +0.000 +0.000 +0.000 +0.000 +0.000 +0.000 +0.000
# oxidation-state Ti +1.085 +0.852 +0.852 +1.085 +0.852 +0.852 +1.085 +0.852 +0.852 +1.085 +0.852 +0.852 +1.085 +0.852 +0.852 +1.085 +0.852 +0.852 +1.085 +0.852 +0.852 +1.085 +0.852 +0.852 +1.085 +0.852 +0.852 +1.085 +0.852 +0.852 +1.085 +0.852 +0.852 +1.085 +0.852 +0.852 +1.085 +0.852 +0.852 +1.085 +0.852 +0.852 +1.085 +0.852 +0.852 +1.085 +0.852 +0.852
# magnetic-moments Ti -0.000 -0.001 -0.001 -0.000 -0.001 -0.001 -0.000 -0.001 -0.001 -0.000 -0.001 -0.001 -0.000 -0.001 -0.001 -0.000 -0.001 -0.001 -0.000 -0.001 -0.001 -0.000 -0.001 -0.001 -0.000 -0.001 -0.001 -0.000 -0.001 -0.001 -0.000 -0.001 -0.001 -0.000 -0.001 -0.001 -0.000 -0.001 -0.001 -0.000 -0.001 -0.001 -0.000 -0.001 -0.001 -0.000 -0.001 -0.001


Dumping 'NbTe2.fillings' ... done
Dumping 'NbTe2.wfns' ... done
Dumping 'NbTe2.fluidState' ... done
Dumping 'NbTe2.ionpos' ... done
Dumping 'NbTe2.eigenvals' ... done
End date and time: Tue Jan  5 18:41:43 2021  (Duration: 0-5:01:25.37)
Done!
