
*************** JDFTx 1.5.0  ***************

Start date and time: Sun Feb 14 06:22:19 2021
Executable jdftx_gpu with command-line: -i Charged.in -o Charged.out
Running on hosts (process indices):  amax (0-6)
Divided in process groups (process indices):  0 (0)  1 (1)  2 (2)  3 (3)  4 (4)  5 (5)  6 (6)
gpuInit: Found compatible cuda device 0 'Tesla K80'
gpuInit: Found compatible cuda device 1 'Tesla K80'
gpuInit: Found compatible cuda device 2 'Tesla K80'
gpuInit: Found compatible cuda device 3 'Tesla K80'
gpuInit: Found compatible cuda device 4 'Tesla K80'
gpuInit: Found compatible cuda device 5 'Tesla K80'
gpuInit: Found compatible cuda device 6 'Tesla K80'
gpuInit: Selected device 0
Resource initialization completed at t[s]:      3.65
Run totals: 7 processes, 24 threads, 7 GPUs


Input parsed successfully to the following command list (including defaults):

basis kpoint-dependent
cache-projectors no
coords-type Lattice
core-overlap-check none
coulomb-interaction Slab 001
coulomb-truncation-embed 0.5 0.5 0.5
davidson-band-ratio 1.1
dump End State
dump-name NbTe2.$VAR
elec-cutoff 20
elec-eigen-algo Davidson
elec-ex-corr gga-PBE
elec-initial-charge 0.000000
elec-initial-magnetization 10.000000 no
elec-smearing Gauss 0.0073499
electronic-minimize  \
	dirUpdateScheme      FletcherReeves \
	linminMethod         DirUpdateRecommended \
	nIterations          200 \
	history              15 \
	knormThreshold       0 \
	energyDiffThreshold  1e-08 \
	nEnergyDiff          2 \
	alphaTstart          1 \
	alphaTmin            1e-10 \
	updateTestStepSize   yes \
	alphaTreduceFactor   0.1 \
	alphaTincreaseFactor 3 \
	nAlphaAdjustMax      3 \
	wolfeEnergy          0.0001 \
	wolfeGradient        0.9 \
	fdTest               no
exchange-regularization WignerSeitzTruncated
fluid LinearPCM 298.000000 1.013250
fluid-anion F- 1 MeanFieldLJ \
	epsBulk 1 \
	pMol 0 \
	epsInf 1 \
	Pvap 0 \
	sigmaBulk 0 \
	Rvdw 2.24877 \
	Res 0 \
	tauNuc 343133
fluid-cation Na+ 1 MeanFieldLJ \
	epsBulk 1 \
	pMol 0 \
	epsInf 1 \
	Pvap 0 \
	sigmaBulk 0 \
	Rvdw 2.19208 \
	Res 0 \
	tauNuc 343133
fluid-ex-corr lda-TF lda-PZ
fluid-gummel-loop 10 1.000000e-05
fluid-minimize  \
	dirUpdateScheme      PolakRibiere \
	linminMethod         DirUpdateRecommended \
	nIterations          400 \
	history              15 \
	knormThreshold       1e-11 \
	energyDiffThreshold  0 \
	nEnergyDiff          2 \
	alphaTstart          1 \
	alphaTmin            1e-10 \
	updateTestStepSize   yes \
	alphaTreduceFactor   0.1 \
	alphaTincreaseFactor 3 \
	nAlphaAdjustMax      6 \
	wolfeEnergy          0.0001 \
	wolfeGradient        0.9 \
	fdTest               no
fluid-solvent H2O 55.338 ScalarEOS \
	epsBulk 78.4 \
	pMol 0.92466 \
	epsInf 1.77 \
	Pvap 1.06736e-10 \
	sigmaBulk 4.62e-05 \
	Rvdw 2.61727 \
	Res 1.42 \
	tauNuc 343133 \
	poleEl 15 7 1
forces-output-coords Positions
initial-state NbTe2.$VAR
ion Zr   0.125000000000000  -0.000000000000000   0.596440027000000 1
ion Zr  -0.000000000000000   0.125000000000000   0.403549986000000 1
ion Zr   0.375000000000000  -0.000000000000000   0.596440027000000 1
ion Zr   0.250000000000000   0.125000000000000   0.403549986000000 1
ion Zr   0.625000033000000  -0.000000000000000   0.596440027000000 1
ion Zr   0.500000000000000   0.125000000000000   0.403549986000000 1
ion Zr   0.874999967000000  -0.000000000000000   0.596440027000000 1
ion Zr   0.750000000000000   0.125000000000000   0.403549986000000 1
ion Zr   0.125000000000000   0.250000000000000   0.596440027000000 1
ion Zr  -0.000000000000000   0.375000000000000   0.403549986000000 1
ion Zr   0.375000000000000   0.250000000000000   0.596440027000000 1
ion Zr   0.250000000000000   0.375000000000000   0.403549986000000 1
ion Zr   0.625000033000000   0.250000000000000   0.596440027000000 1
ion Zr   0.500000000000000   0.375000000000000   0.403549986000000 1
ion Zr   0.874999967000000   0.250000000000000   0.596440027000000 1
ion Zr   0.750000000000000   0.375000000000000   0.403549986000000 1
ion Zr   0.125000000000000   0.500000000000000   0.596440027000000 1
ion Zr   0.000000000000000   0.625000033000000   0.403549986000000 1
ion Zr   0.375000000000000   0.500000000000000   0.596440027000000 1
ion Zr   0.250000000000000   0.625000033000000   0.403549986000000 1
ion Zr   0.625000033000000   0.500000000000000   0.596440027000000 1
ion Zr   0.500000000000000   0.625000033000000   0.403549986000000 1
ion Zr   0.874999967000000   0.500000000000000   0.596440027000000 1
ion Zr   0.750000000000000   0.625000033000000   0.403549986000000 1
ion Zr   0.125000000000000   0.750000000000000   0.596440027000000 1
ion Zr   0.000000000000000   0.874999967000000   0.403549986000000 1
ion Zr   0.375000000000000   0.750000000000000   0.596440027000000 1
ion Zr   0.250000000000000   0.874999967000000   0.403549986000000 1
ion Zr   0.625000033000000   0.750000000000000   0.596440027000000 1
ion Zr   0.500000000000000   0.874999967000000   0.403549986000000 1
ion Zr   0.874999967000000   0.750000000000000   0.596440027000000 1
ion Zr   0.750000000000000   0.874999967000000   0.403549986000000 1
ion Si   0.125000000000000   0.125000000000000   0.500000000000000 1
ion Si  -0.000000000000000  -0.000000000000000   0.500000000000000 1
ion Si   0.375000000000000   0.125000000000000   0.500000000000000 1
ion Si   0.250000000000000  -0.000000000000000   0.500000000000000 1
ion Si   0.625000033000000   0.125000000000000   0.500000000000000 1
ion Si   0.500000000000000  -0.000000000000000   0.500000000000000 1
ion Si   0.874999967000000   0.125000000000000   0.500000000000000 1
ion Si   0.750000000000000  -0.000000000000000   0.500000000000000 1
ion Si   0.125000000000000   0.375000000000000   0.500000000000000 1
ion Si  -0.000000000000000   0.250000000000000   0.500000000000000 1
ion Si   0.375000000000000   0.375000000000000   0.500000000000000 1
ion Si   0.250000000000000   0.250000000000000   0.500000000000000 1
ion Si   0.625000033000000   0.375000000000000   0.500000000000000 1
ion Si   0.500000000000000   0.250000000000000   0.500000000000000 1
ion Si   0.874999967000000   0.375000000000000   0.500000000000000 1
ion Si   0.750000000000000   0.250000000000000   0.500000000000000 1
ion Si   0.125000000000000   0.625000033000000   0.500000000000000 1
ion Si  -0.000000000000000   0.500000000000000   0.500000000000000 1
ion Si   0.375000000000000   0.625000033000000   0.500000000000000 1
ion Si   0.250000000000000   0.500000000000000   0.500000000000000 1
ion Si   0.625000033000000   0.625000033000000   0.500000000000000 1
ion Si   0.500000000000000   0.500000000000000   0.500000000000000 1
ion Si   0.874999967000000   0.625000033000000   0.500000000000000 1
ion Si   0.750000000000000   0.500000000000000   0.500000000000000 1
ion Si   0.125000000000000   0.874999967000000   0.500000000000000 1
ion Si  -0.000000000000000   0.750000000000000   0.500000000000000 1
ion Si   0.375000000000000   0.874999967000000   0.500000000000000 1
ion Si   0.250000000000000   0.750000000000000   0.500000000000000 1
ion Si   0.625000033000000   0.874999967000000   0.500000000000000 1
ion Si   0.500000000000000   0.750000000000000   0.500000000000000 1
ion Si   0.874999967000000   0.874999967000000   0.500000000000000 1
ion Si   0.750000000000000   0.750000000000000   0.500000000000000 1
ion Te   0.000000000000000   0.125000000000000   0.660009973000000 1
ion Te   0.125000000000000  -0.000000000000000   0.339989984000000 1
ion Te   0.250000000000000   0.125000000000000   0.660009973000000 1
ion Te   0.375000000000000  -0.000000000000000   0.339989984000000 1
ion Te   0.500000000000000   0.125000000000000   0.660009973000000 1
ion Te   0.625000033000000  -0.000000000000000   0.339989984000000 1
ion Te   0.750000000000000   0.125000000000000   0.660009973000000 1
ion Te   0.874999967000000  -0.000000000000000   0.339989984000000 1
ion Te   0.000000000000000   0.375000000000000   0.660009973000000 1
ion Te   0.125000000000000   0.250000000000000   0.339989984000000 1
ion Te   0.250000000000000   0.375000000000000   0.660009973000000 1
ion Te   0.375000000000000   0.250000000000000   0.339989984000000 1
ion Te   0.500000000000000   0.375000000000000   0.660009973000000 1
ion Te   0.625000033000000   0.250000000000000   0.339989984000000 1
ion Te   0.750000000000000   0.375000000000000   0.660009973000000 1
ion Te   0.874999967000000   0.250000000000000   0.339989984000000 1
ion Te  -0.000000000000000   0.625000033000000   0.660009973000000 1
ion Te   0.125000000000000   0.500000000000000   0.339989984000000 1
ion Te   0.250000000000000   0.625000033000000   0.660009973000000 1
ion Te   0.375000000000000   0.500000000000000   0.339989984000000 1
ion Te   0.500000000000000   0.625000033000000   0.660009973000000 1
ion Te   0.625000033000000   0.500000000000000   0.339989984000000 1
ion Te   0.750000000000000   0.625000033000000   0.660009973000000 1
ion Te   0.874999967000000   0.500000000000000   0.339989984000000 1
ion Te   0.000000000000000   0.874999967000000   0.660009973000000 1
ion Te   0.125000000000000   0.750000000000000   0.339989984000000 1
ion Te   0.250000000000000   0.874999967000000   0.660009973000000 1
ion Te   0.375000000000000   0.750000000000000   0.339989984000000 1
ion Te   0.500000000000000   0.874999967000000   0.660009973000000 1
ion Te   0.625000033000000   0.750000000000000   0.339989984000000 1
ion Te   0.750000000000000   0.874999967000000   0.660009973000000 1
ion Te   0.874999967000000   0.750000000000000   0.339989984000000 1
ion-species GBRV/$ID_pbe.uspp
ion-width Ecut
ionic-minimize  \
	dirUpdateScheme      L-BFGS \
	linminMethod         DirUpdateRecommended \
	nIterations          500 \
	history              15 \
	knormThreshold       0.0001 \
	energyDiffThreshold  1e-06 \
	nEnergyDiff          2 \
	alphaTstart          1 \
	alphaTmin            1e-10 \
	updateTestStepSize   yes \
	alphaTreduceFactor   0.1 \
	alphaTincreaseFactor 3 \
	nAlphaAdjustMax      3 \
	wolfeEnergy          0.0001 \
	wolfeGradient        0.9 \
	fdTest               no
kpoint   0.000000000000   0.000000000000   0.000000000000  1.00000000000000
kpoint-folding 3 3 1 
latt-move-scale 1 1 1
latt-scale 1.88973 1.88973 1.88973 
lattice Triclinic 14.5984 14.5984 22.0593 90 90 90
lattice-minimize  \
	dirUpdateScheme      L-BFGS \
	linminMethod         DirUpdateRecommended \
	nIterations          0 \
	history              15 \
	knormThreshold       0 \
	energyDiffThreshold  1e-06 \
	nEnergyDiff          2 \
	alphaTstart          1 \
	alphaTmin            1e-10 \
	updateTestStepSize   yes \
	alphaTreduceFactor   0.1 \
	alphaTincreaseFactor 3 \
	nAlphaAdjustMax      3 \
	wolfeEnergy          0.0001 \
	wolfeGradient        0.9 \
	fdTest               no
lcao-params -1 1e-06 0.0073499
pcm-variant CANDLE
spintype z-spin
subspace-rotation-factor 1 yes
symmetries automatic
symmetry-threshold 0.0001



---------- Setting up symmetries ----------

Found 16 point-group symmetries of the bravais lattice
Found 256 space-group symmetries with basis
Applied RMS atom displacement 9.79187e-05 bohrs to make symmetries exact.

---------- Initializing the Grid ----------
R = 
[     27.587          0          0  ]
[          0     27.587          0  ]
[          0          0     41.686  ]
unit cell volume = 31724.8
G =
[   0.227759          0          0  ]
[          0   0.227759          0  ]
[          0          0   0.150726  ]
Minimum fftbox size, Smin = [  112  112  168  ]
Chosen fftbox size, S = [  112  112  168  ]

---------- Exchange Correlation functional ----------
Initalized PBE GGA exchange.
Initalized PBE GGA correlation.

---------- Setting up pseudopotentials ----------
Width of ionic core gaussian charges (only for fluid interactions / plotting) set to 0.397384

Reading pseudopotential file '/home/guoxy/vasp/jdftx-1.5.0/build/pseudopotentials/GBRV/zr_pbe.uspp':
  Title: Zr.  Created by USPP 7.3.6 on 14-9-2013
  Reference state energy: -49.308156.  12 valence electrons in orbitals:
    |400>  occupation: 2  eigenvalue: -2.002953
    |410>  occupation: 6  eigenvalue: -1.192957
    |420>  occupation: 2  eigenvalue: -0.132269
    |500>  occupation: 2  eigenvalue: -0.163143
    |510>  occupation: 0  eigenvalue: -0.053997
  lMax: 2  lLocal: 3  QijEcut: 5
  6 projectors sampled on a log grid with 625 points:
    l: 0  eig: -2.002953  rCut: 1.8
    l: 0  eig: -0.132269  rCut: 1.8
    l: 1  eig: -1.192956  rCut: 2
    l: 1  eig: 0.150000  rCut: 2
    l: 2  eig: -0.163145  rCut: 2.2
    l: 2  eig: 0.150000  rCut: 2.2
  Partial core density with radius 1.2
  Transforming core density to a uniform radial grid of dG=0.02 with 1107 points.
  Transforming local potential to a uniform radial grid of dG=0.02 with 1107 points.
  Transforming nonlocal projectors to a uniform radial grid of dG=0.02 with 432 points.
  Transforming density augmentations to a uniform radial grid of dG=0.02 with 1107 points.
  Transforming atomic orbitals to a uniform radial grid of dG=0.02 with 432 points.
  Core radius for overlap checks: 2.20 bohrs.

Reading pseudopotential file '/home/guoxy/vasp/jdftx-1.5.0/build/pseudopotentials/GBRV/si_pbe.uspp':
  Title: Si.  Created by USPP 7.3.6 on 14-9-2013
  Reference state energy: -4.599342.  4 valence electrons in orbitals:
    |300>  occupation: 2  eigenvalue: -0.397366
    |310>  occupation: 2  eigenvalue: -0.149981
  lMax: 2  lLocal: 3  QijEcut: 5
  6 projectors sampled on a log grid with 627 points:
    l: 0  eig: -0.397364  rCut: 1.6
    l: 0  eig: 1.000000  rCut: 1.6
    l: 1  eig: -0.149982  rCut: 1.6
    l: 1  eig: 1.000000  rCut: 1.6
    l: 2  eig: -0.100000  rCut: 1.7
    l: 2  eig: 0.100000  rCut: 1.7
  Partial core density with radius 1.45
  Transforming core density to a uniform radial grid of dG=0.02 with 1107 points.
  Transforming local potential to a uniform radial grid of dG=0.02 with 1107 points.
  Transforming nonlocal projectors to a uniform radial grid of dG=0.02 with 432 points.
  Transforming density augmentations to a uniform radial grid of dG=0.02 with 1107 points.
  Transforming atomic orbitals to a uniform radial grid of dG=0.02 with 432 points.
  Core radius for overlap checks: 1.70 bohrs.

Reading pseudopotential file '/home/guoxy/vasp/jdftx-1.5.0/build/pseudopotentials/GBRV/te_pbe.uspp':
  Title: Te.  Created by USPP 7.3.6 on 14-9-2013
  Reference state energy: -13.134220.  6 valence electrons in orbitals:
    |500>  occupation: 2  eigenvalue: -0.555231
    |510>  occupation: 4  eigenvalue: -0.218781
  lMax: 2  lLocal: 2  QijEcut: 5
  5 projectors sampled on a log grid with 723 points:
    l: 0  eig: -0.555229  rCut: 2.1
    l: 0  eig: 1.000000  rCut: 2.1
    l: 1  eig: -0.218780  rCut: 2.1
    l: 1  eig: 1.000000  rCut: 2.1
    l: 2  eig: 1.000000  rCut: 2.6
  Partial core density with radius 1.8
  Transforming core density to a uniform radial grid of dG=0.02 with 1107 points.
  Transforming local potential to a uniform radial grid of dG=0.02 with 1107 points.
  Transforming nonlocal projectors to a uniform radial grid of dG=0.02 with 432 points.
  Transforming density augmentations to a uniform radial grid of dG=0.02 with 1107 points.
  Transforming atomic orbitals to a uniform radial grid of dG=0.02 with 432 points.
  Core radius for overlap checks: 2.60 bohrs.

Initialized 3 species with 96 total atoms.

Folded 1 k-points by 3x3x1 to 9 k-points.

---------- Setting up k-points, bands, fillings ----------
Reduced to 3 k-points under symmetry. 
Computing the number of bands and number of electrons
Calculating initial fillings.
nElectrons: 704.000000   nBands: 672   nStates: 6

----- Setting up reduced wavefunction bases (one per k-point) -----
average nbasis = 135511.000 , ideal nbasis = 135530.722

---------- Setting up coulomb interaction ----------
Fluid mode embedding: using embedded box, but periodic Coulomb kernel.
(Fluid response is responsible for (approximate) separation between periodic images.)
Setting up double-sized grid for truncated Coulomb potentials:
R = 
[     27.587          0          0  ]
[          0     27.587          0  ]
[          0          0    83.3721  ]
unit cell volume = 63449.6
G =
[   0.227759          0          0  ]
[          0   0.227759          0  ]
[          0          0  0.0753632  ]
Chosen fftbox size, S = [  112  112  336  ]
Integer grid location selected as the embedding center:
   Grid: [  56  56  84  ]
   Lattice: [  0.5  0.5  0.5  ]
   Cartesian: [  13.7935  13.7935  20.843  ]
Constructing Wigner-Seitz cell: 6 faces (6 quadrilaterals, 0 hexagons)
Range-separation parameter for embedded mesh potentials due to point charges: 0.628421 bohrs.

Initializing van der Waals corrections
	NOTE: vdW corrections apply only for interactions with fluid.
	Zr:  C6:  427.91 Eh-a0^6  R0: 3.097 a0
	Si:  C6:  160.10 Eh-a0^6  R0: 3.243 a0
	Te:  C6:  550.54 Eh-a0^6  R0: 3.575 a0

---------- Setting up ewald sum ----------
Optimum gaussian width for ewald sums = 7.436030 bohr.
Real space sum over 405 unit cells with max indices [  4  4  2  ]
Reciprocal space sum over 8325 terms with max indices [  7  7  18  ]

---------- Allocating electronic variables ----------
Initializing wave functions:  linear combination of atomic orbitals
Zr pseudo-atom occupations:   s ( 2 2 )  p ( 6 0 )  d ( 2 )
Si pseudo-atom occupations:   s ( 2 )  p ( 2 )
Te pseudo-atom occupations:   s ( 2 )  p ( 4 )
	FillingsUpdate:  mu: -0.764293898  nElectrons: 704.000000  magneticMoment: [ Abs: 4.03209  Tot: +4.01590 ]
LCAOMinimize: Iter:   0  F: -1875.1917154547718383  |grad|_K:  1.332e-02  alpha:  1.000e+00
	FillingsUpdate:  mu: +0.448582282  nElectrons: 704.000000  magneticMoment: [ Abs: 1.42853  Tot: +1.42745 ]
LCAOMinimize: Iter:   1  F: -1893.9463918634437505  |grad|_K:  8.487e-03  alpha:  2.323e-01  linmin:  3.267e-01  cgtest: -9.039e-01  t[s]:    325.98
LCAOMinimize: 	Bad step direction: g.d > 0.
LCAOMinimize: 	Undoing step.
LCAOMinimize: 	Step failed: resetting search direction.
	FillingsUpdate:  mu: +0.448582282  nElectrons: 704.000000  magneticMoment: [ Abs: 1.42853  Tot: +1.42745 ]
LCAOMinimize: Iter:   2  F: -1893.9463918634437505  |grad|_K:  8.487e-03  alpha:  0.000e+00
	FillingsUpdate:  mu: -0.119128271  nElectrons: 704.000000  magneticMoment: [ Abs: 1.06689  Tot: +0.94929 ]
LCAOMinimize: Iter:   3  F: -1903.9240034286322043  |grad|_K:  7.658e-04  alpha:  1.343e-01  linmin:  1.620e-01  cgtest: -7.780e-01  t[s]:    486.96
	FillingsUpdate:  mu: -0.112260923  nElectrons: 704.000000  magneticMoment: [ Abs: 0.93593  Tot: +0.83077 ]
LCAOMinimize: Iter:   4  F: -1904.0318988467679446  |grad|_K:  5.628e-04  alpha:  2.060e-01  linmin:  9.515e-03  cgtest:  6.348e-01  t[s]:    581.76
	FillingsUpdate:  mu: -0.073132290  nElectrons: 704.000000  magneticMoment: [ Abs: 0.81251  Tot: +0.71066 ]
LCAOMinimize: Iter:   5  F: -1904.0972359402726397  |grad|_K:  2.911e-05  alpha:  1.498e-01  linmin:  2.515e-02  cgtest: -1.590e-02  t[s]:    675.83
	FillingsUpdate:  mu: -0.073919455  nElectrons: 704.000000  magneticMoment: [ Abs: 0.59563  Tot: +0.49365 ]
LCAOMinimize: Iter:   6  F: -1904.0976624275392624  |grad|_K:  1.721e-05  alpha:  3.723e-01  linmin: -7.391e-04  cgtest:  8.564e-03  t[s]:    769.75
	FillingsUpdate:  mu: -0.074998120  nElectrons: 704.000000  magneticMoment: [ Abs: 0.25594  Tot: +0.14931 ]
LCAOMinimize: Iter:   7  F: -1904.0978942354290666  |grad|_K:  1.044e-05  alpha:  5.767e-01  linmin:  2.701e-03  cgtest: -2.265e-02  t[s]:    863.21
	FillingsUpdate:  mu: -0.074183643  nElectrons: 704.000000  magneticMoment: [ Abs: 0.18978  Tot: +0.08244 ]
LCAOMinimize: Iter:   8  F: -1904.0979227873392574  |grad|_K:  4.128e-06  alpha:  1.939e-01  linmin: -5.824e-04  cgtest:  2.529e-02  t[s]:    957.20
LCAOMinimize: 	Predicted alpha/alphaT>3.000000, increasing alphaT to 5.818200e-01.
	FillingsUpdate:  mu: -0.074195288  nElectrons: 704.000000  magneticMoment: [ Abs: 0.06523  Tot: -0.00292 ]
LCAOMinimize: Iter:   9  F: -1904.0979405122475328  |grad|_K:  1.582e-06  alpha:  7.646e-01  linmin: -1.128e-03  cgtest: -1.339e-02  t[s]:   1078.47
	FillingsUpdate:  mu: -0.074223240  nElectrons: 704.000000  magneticMoment: [ Abs: 0.04600  Tot: -0.00622 ]
LCAOMinimize: Iter:  10  F: -1904.0979415001363577  |grad|_K:  7.758e-07  alpha:  2.901e-01  linmin: -4.668e-05  cgtest: -2.111e-03  t[s]:   1172.13
	FillingsUpdate:  mu: -0.074143758  nElectrons: 704.000000  magneticMoment: [ Abs: 0.02762  Tot: -0.00435 ]
LCAOMinimize: Iter:  11  F: -1904.0979418244087356  |grad|_K:  7.451e-07  alpha:  3.965e-01  linmin:  2.808e-05  cgtest:  3.902e-04  t[s]:   1265.54
LCAOMinimize: Converged (|Delta F|<1.000000e-06 for 2 iters).
----- createFluidSolver() ----- (Fluid-side solver setup)
   Initializing fluid molecule 'H2O'
     Initializing site 'O'
       Electron density: proportional to exp(-r/0.36935)*erfc((r-0.51523)/0.36823) with norm 6.826
       Charge density: gaussian nuclear width 0.478731 with net site charge 0.826
       Polarizability: cuspless exponential with width 0.32 and norm 3.73
       Hard sphere radius: 2.57003 bohrs
       Positions in reference frame:
         [ +0.000000 +0.000000 +0.000000 ]
     Initializing site 'H'
       Electron density: proportional to exp(-r/0.34641)*erfc((r-0)/0.390882) with norm 0.587
       Charge density: gaussian nuclear width 0.377945 with net site charge -0.413
       Polarizability: cuspless exponential with width 0.39 and norm 3.3
       Positions in reference frame:
         [ +0.000000 -1.441945 +1.122523 ]
         [ +0.000000 +1.441945 +1.122523 ]
     Net charge: 0   dipole magnitude: 0.927204
     Initializing spherical shell mfKernel with radius 2.61727 Bohr
     deltaS corrections:
       site 'O': -7.54299
       site 'H': -6.83917
   Initializing fluid molecule 'Na+'
     Initializing site 'Na'
       Electron density: proportional to exp(-r/0.19682)*erfc((r-0.71491)/0.41314) with norm 8.1383
       Charge density: gaussian nuclear width 0.365347 with net site charge -1
       Hard sphere radius: 1.86327 bohrs
       Positions in reference frame:
         [ +0.000000 +0.000000 +0.000000 ]
     Net charge: -1   dipole magnitude: 0
     Initializing gaussian mfKernel with width: 1.55004 Bohr
     deltaS corrections:
       site 'Na': -22.3555
   Initializing fluid molecule 'F-'
     Initializing site 'F'
       Electron density: proportional to exp(-r/0.38886)*erfc((r-0)/0.438782) with norm 8
       Charge density: gaussian nuclear width 0.374796 with net site charge 1
       Hard sphere radius: 2.39995 bohrs
       Positions in reference frame:
         [ +0.000000 +0.000000 +0.000000 ]
     Net charge: 1   dipole magnitude: 0
     Initializing gaussian mfKernel with width: 1.59012 Bohr
     deltaS corrections:
       site 'F': -9.04335

Correction to mu due to finite nuclear width = -0.0110089
   Cavity determined by nc: 0.00142 and sigma: 0.707107
   Nonlocal vdW cavity from gaussian model electron density with norm = 8 and sigma = 0.993594 bohr
   Charge asymmetry in cavity with sensitivity pCavity = 36.5 e-bohr/Eh
   Electrostatic cavity expanded by eta = 1.46 bohrs
   Weighted density cavitation model constrained by Nbulk: 0.0049383 bohr^-3, Pvap: 3.14029 kPa, Rvdw: 2.61727 bohr and sigmaBulk: 4.62e-05 Eh/bohr^2 at T: 298 K.
   Weighted density dispersion model using vdW pair potentials with single solvent site with sqrtC6eff: 0.77 SI.


---- Citations for features of the code used in this run ----

   Software package:
      R. Sundararaman, K. Letchworth-Weaver, K.A. Schwarz, D. Gunceler, Y. Ozhabes and T.A. Arias, 'JDFTx: software for joint density-functional theory', SoftwareX 6, 278 (2017)

   gga-PBE exchange-correlation functional:
      J.P. Perdew, K. Burke and M. Ernzerhof, Phys. Rev. Lett. 77, 3865 (1996)

   Pseudopotentials:
      KF Garrity, JW Bennett, KM Rabe and D Vanderbilt, Comput. Mater. Sci. 81, 446 (2014)

   Truncated Coulomb potentials:
      R. Sundararaman and T.A. Arias, Phys. Rev. B 87, 165122 (2013)

   Van der Waals correction pair-potentials:
      S. Grimme, J. Comput. Chem. 27, 1787 (2006)

   Charge-asymmetric nonlocally-determined local-electric (CANDLE) solvation model:
      R. Sundararaman and W.A. Goddard III, J. Chem. Phys. 142, 064107 (2015)

   Total energy minimization with Auxiliary Hamiltonian:
      C. Freysoldt, S. Boeck, and J. Neugebauer, Phys. Rev. B 79, 241103(R) (2009)

This list may not be complete. Please suggest additional citations or
report any other bugs at https://github.com/shankar1729/jdftx/issues

Initialization completed successfully at t[s]:   1289.89

Fluid solver invoked on fresh (partially random / LCAO) wavefunctions
Running a vacuum solve first:

-------- Initial electronic minimization -----------
	FillingsUpdate:  mu: -0.074143758  nElectrons: 704.000000  magneticMoment: [ Abs: 0.02762  Tot: -0.00435 ]
ElecMinimize: Iter:   0  F: -1904.097941824415557  |grad|_K:  5.244e-05  alpha:  1.000e+00
	FillingsUpdate:  mu: -0.027274078  nElectrons: 704.000000  magneticMoment: [ Abs: 0.00904  Tot: +0.00086 ]
	SubspaceRotationAdjust: set factor to 1
ElecMinimize: Iter:   1  F: -1905.662765250319580  |grad|_K:  2.605e-05  alpha:  1.039e+00  linmin: -5.467e-06  t[s]:   1545.47
	FillingsUpdate:  mu: -0.075421394  nElectrons: 704.000000  magneticMoment: [ Abs: 0.00499  Tot: +0.00141 ]
	SubspaceRotationAdjust: set factor to 0.684
ElecMinimize: Iter:   2  F: -1905.820187570728194  |grad|_K:  2.601e-05  alpha:  4.162e-01  linmin: -9.902e-05  t[s]:   1705.01
	FillingsUpdate:  mu: -0.042031406  nElectrons: 704.000000  magneticMoment: [ Abs: 0.00158  Tot: +0.00146 ]
	SubspaceRotationAdjust: set factor to 0.403
ElecMinimize: Iter:   3  F: -1905.943313474754405  |grad|_K:  1.078e-05  alpha:  3.194e-01  linmin:  7.486e-05  t[s]:   1865.21
	FillingsUpdate:  mu: -0.049350321  nElectrons: 704.000000  magneticMoment: [ Abs: 0.00130  Tot: +0.00099 ]
	SubspaceRotationAdjust: set factor to 0.428
ElecMinimize: Iter:   4  F: -1905.984790157204088  |grad|_K:  5.782e-06  alpha:  6.668e-01  linmin:  4.849e-05  t[s]:   2025.49
	FillingsUpdate:  mu: -0.051367621  nElectrons: 704.000000  magneticMoment: [ Abs: 0.00137  Tot: +0.00058 ]
	SubspaceRotationAdjust: set factor to 0.467
ElecMinimize: Iter:   5  F: -1905.998032682220355  |grad|_K:  4.087e-06  alpha:  7.372e-01  linmin:  1.219e-05  t[s]:   2185.02
	FillingsUpdate:  mu: -0.045967279  nElectrons: 704.000000  magneticMoment: [ Abs: 0.00124  Tot: +0.00028 ]
	SubspaceRotationAdjust: set factor to 0.468
ElecMinimize: Iter:   6  F: -1906.003441768093580  |grad|_K:  2.541e-06  alpha:  5.923e-01  linmin:  9.869e-06  t[s]:   2344.99
	FillingsUpdate:  mu: -0.049033289  nElectrons: 704.000000  magneticMoment: [ Abs: 0.00092  Tot: +0.00005 ]
	SubspaceRotationAdjust: set factor to 0.532
ElecMinimize: Iter:   7  F: -1906.005880698233796  |grad|_K:  1.659e-06  alpha:  6.924e-01  linmin:  1.425e-05  t[s]:   2504.76
	FillingsUpdate:  mu: -0.047896662  nElectrons: 704.000000  magneticMoment: [ Abs: 0.00060  Tot: -0.00006 ]
	SubspaceRotationAdjust: set factor to 0.58
ElecMinimize: Iter:   8  F: -1906.006863220980676  |grad|_K:  1.031e-06  alpha:  6.552e-01  linmin:  8.458e-06  t[s]:   2664.45
	FillingsUpdate:  mu: -0.048841099  nElectrons: 704.000000  magneticMoment: [ Abs: 0.00035  Tot: -0.00009 ]
	SubspaceRotationAdjust: set factor to 0.55
ElecMinimize: Iter:   9  F: -1906.007236527957048  |grad|_K:  6.380e-07  alpha:  6.449e-01  linmin:  3.476e-06  t[s]:   2823.83
	FillingsUpdate:  mu: -0.047984613  nElectrons: 704.000000  magneticMoment: [ Abs: 0.00022  Tot: -0.00008 ]
	SubspaceRotationAdjust: set factor to 0.449
ElecMinimize: Iter:  10  F: -1906.007345076787942  |grad|_K:  4.253e-07  alpha:  4.879e-01  linmin:  4.401e-07  t[s]:   2983.86
	FillingsUpdate:  mu: -0.048668548  nElectrons: 704.000000  magneticMoment: [ Abs: 0.00010  Tot: -0.00006 ]
	SubspaceRotationAdjust: set factor to 0.366
ElecMinimize: Iter:  11  F: -1906.007404770870153  |grad|_K:  2.623e-07  alpha:  6.034e-01  linmin:  1.352e-06  t[s]:   3143.78
	FillingsUpdate:  mu: -0.048412192  nElectrons: 704.000000  magneticMoment: [ Abs: 0.00005  Tot: -0.00003 ]
	SubspaceRotationAdjust: set factor to 0.407
ElecMinimize: Iter:  12  F: -1906.007426332757859  |grad|_K:  1.852e-07  alpha:  5.736e-01  linmin:  4.894e-07  t[s]:   3303.57
	FillingsUpdate:  mu: -0.048361143  nElectrons: 704.000000  magneticMoment: [ Abs: 0.00002  Tot: -0.00002 ]
	SubspaceRotationAdjust: set factor to 0.536
ElecMinimize: Iter:  13  F: -1906.007438389929348  |grad|_K:  1.229e-07  alpha:  6.432e-01  linmin:  1.283e-06  t[s]:   3463.35
	FillingsUpdate:  mu: -0.048542821  nElectrons: 704.000000  magneticMoment: [ Abs: 0.00002  Tot: -0.00000 ]
	SubspaceRotationAdjust: set factor to 0.529
ElecMinimize: Iter:  14  F: -1906.007443704773095  |grad|_K:  9.263e-08  alpha:  6.446e-01  linmin:  1.242e-06  t[s]:   3623.07
	FillingsUpdate:  mu: -0.048392646  nElectrons: 704.000000  magneticMoment: [ Abs: 0.00002  Tot: +0.00000 ]
	SubspaceRotationAdjust: set factor to 0.478
ElecMinimize: Iter:  15  F: -1906.007446005232396  |grad|_K:  6.160e-08  alpha:  4.909e-01  linmin:  1.201e-07  t[s]:   3782.61
	FillingsUpdate:  mu: -0.048435774  nElectrons: 704.000000  magneticMoment: [ Abs: 0.00002  Tot: +0.00000 ]
	SubspaceRotationAdjust: set factor to 0.558
ElecMinimize: Iter:  16  F: -1906.007447259690025  |grad|_K:  3.458e-08  alpha:  6.045e-01  linmin:  5.811e-07  t[s]:   3942.41
	FillingsUpdate:  mu: -0.048455386  nElectrons: 704.000000  magneticMoment: [ Abs: 0.00001  Tot: +0.00000 ]
	SubspaceRotationAdjust: set factor to 0.599
ElecMinimize: Iter:  17  F: -1906.007447728608440  |grad|_K:  2.478e-08  alpha:  7.192e-01  linmin:  2.098e-07  t[s]:   4102.14
	FillingsUpdate:  mu: -0.048412335  nElectrons: 704.000000  magneticMoment: [ Abs: 0.00001  Tot: +0.00000 ]
	SubspaceRotationAdjust: set factor to 0.515
ElecMinimize: Iter:  18  F: -1906.007447909398479  |grad|_K:  2.013e-08  alpha:  5.381e-01  linmin:  1.310e-08  t[s]:   4262.00
	FillingsUpdate:  mu: -0.048443819  nElectrons: 704.000000  magneticMoment: [ Abs: 0.00001  Tot: +0.00000 ]
	SubspaceRotationAdjust: set factor to 0.481
ElecMinimize: Iter:  19  F: -1906.007448017832303  |grad|_K:  1.295e-08  alpha:  4.885e-01  linmin:  4.282e-08  t[s]:   4422.00
	FillingsUpdate:  mu: -0.048437171  nElectrons: 704.000000  magneticMoment: [ Abs: 0.00000  Tot: +0.00000 ]
	SubspaceRotationAdjust: set factor to 0.655
ElecMinimize: Iter:  20  F: -1906.007448077909430  |grad|_K:  7.976e-09  alpha:  6.552e-01  linmin:  1.473e-07  t[s]:   4582.12
	FillingsUpdate:  mu: -0.048429606  nElectrons: 704.000000  magneticMoment: [ Abs: 0.00000  Tot: +0.00000 ]
	SubspaceRotationAdjust: set factor to 0.717
ElecMinimize: Iter:  21  F: -1906.007448101425553  |grad|_K:  5.926e-09  alpha:  6.769e-01  linmin:  4.365e-09  t[s]:   4742.61
	FillingsUpdate:  mu: -0.048440421  nElectrons: 704.000000  magneticMoment: [ Abs: 0.00000  Tot: -0.00000 ]
	SubspaceRotationAdjust: set factor to 0.558
ElecMinimize: Iter:  22  F: -1906.007448109461848  |grad|_K:  4.734e-09  alpha:  4.200e-01  linmin: -1.623e-08  t[s]:   4902.40
	FillingsUpdate:  mu: -0.048434436  nElectrons: 704.000000  magneticMoment: [ Abs: 0.00000  Tot: -0.00000 ]
	SubspaceRotationAdjust: set factor to 0.474
ElecMinimize: Iter:  23  F: -1906.007448115126863  |grad|_K:  2.736e-09  alpha:  4.649e-01  linmin:  2.281e-07  t[s]:   5062.05
ElecMinimize: Converged (|Delta F|<1.000000e-08 for 2 iters).
Setting wave functions to eigenvectors of Hamiltonian
Vacuum energy after initial minimize, F = -1906.007448115126863

	Linear fluid (dielectric constant: 78.4, screening length: 5.74355 Bohr) occupying 0.701412 of unit cell:	Completed after 17 iterations at t[s]:   5091.03

-------- Electronic minimization -----------
	Linear fluid (dielectric constant: 78.4, screening length: 5.74355 Bohr) occupying 0.701412 of unit cell:	Completed after 0 iterations at t[s]:   5123.84
	FillingsUpdate:  mu: -0.165457873  nElectrons: 704.000000  magneticMoment: [ Abs: 0.00000  Tot: -0.00000 ]
ElecMinimize: Iter:   0  F: -1905.997216434632492  |grad|_K:  5.551e-07  alpha:  1.000e+00
	Linear fluid (dielectric constant: 78.4, screening length: 5.74355 Bohr) occupying 0.701780 of unit cell:	Completed after 10 iterations at t[s]:   5255.34
	Linear fluid (dielectric constant: 78.4, screening length: 5.74355 Bohr) occupying 0.701910 of unit cell:	Completed after 6 iterations at t[s]:   5306.91
	FillingsUpdate:  mu: -0.163213877  nElectrons: 704.000000  magneticMoment: [ Abs: 0.00000  Tot: +0.00000 ]
	SubspaceRotationAdjust: set factor to 0.318
ElecMinimize: Iter:   1  F: -1905.997448196563710  |grad|_K:  4.406e-07  alpha:  1.362e+00  linmin: -2.537e-06  t[s]:   5375.51
	Linear fluid (dielectric constant: 78.4, screening length: 5.74355 Bohr) occupying 0.702223 of unit cell:	Completed after 11 iterations at t[s]:   5430.75
	Linear fluid (dielectric constant: 78.4, screening length: 5.74355 Bohr) occupying 0.701988 of unit cell:	Completed after 11 iterations at t[s]:   5484.47
	FillingsUpdate:  mu: -0.164175623  nElectrons: 704.000000  magneticMoment: [ Abs: 0.00000  Tot: +0.00000 ]
	SubspaceRotationAdjust: set factor to 0.158
ElecMinimize: Iter:   2  F: -1905.997483064553080  |grad|_K:  1.552e-07  alpha:  3.324e-01  linmin:  1.515e-06  t[s]:   5553.66
	Linear fluid (dielectric constant: 78.4, screening length: 5.74355 Bohr) occupying 0.702000 of unit cell:	Completed after 1 iterations at t[s]:   5606.97
	Linear fluid (dielectric constant: 78.4, screening length: 5.74355 Bohr) occupying 0.702019 of unit cell:	Completed after 2 iterations at t[s]:   5656.18
	FillingsUpdate:  mu: -0.164134425  nElectrons: 704.000000  magneticMoment: [ Abs: 0.00000  Tot: +0.00000 ]
	SubspaceRotationAdjust: set factor to 0.249
ElecMinimize: Iter:   3  F: -1905.997494074558517  |grad|_K:  6.930e-08  alpha:  8.384e-01  linmin: -1.738e-06  t[s]:   5723.71
	Linear fluid (dielectric constant: 78.4, screening length: 5.74355 Bohr) occupying 0.702030 of unit cell:	Completed after 2 iterations at t[s]:   5777.15
	Linear fluid (dielectric constant: 78.4, screening length: 5.74355 Bohr) occupying 0.702030 of unit cell:	Completed after 0 iterations at t[s]:   5825.93
	FillingsUpdate:  mu: -0.164031395  nElectrons: 704.000000  magneticMoment: [ Abs: 0.00000  Tot: +0.00000 ]
	SubspaceRotationAdjust: set factor to 0.249
ElecMinimize: Iter:   4  F: -1905.997496452779615  |grad|_K:  3.922e-08  alpha:  8.849e-01  linmin: -3.752e-06  t[s]:   5891.79
	Linear fluid (dielectric constant: 78.4, screening length: 5.74355 Bohr) occupying 0.702037 of unit cell:	Completed after 0 iterations at t[s]:   5944.98
	Linear fluid (dielectric constant: 78.4, screening length: 5.74355 Bohr) occupying 0.702037 of unit cell:	Completed after 0 iterations at t[s]:   5993.03
	FillingsUpdate:  mu: -0.164028642  nElectrons: 704.000000  magneticMoment: [ Abs: 0.00000  Tot: +0.00000 ]
	SubspaceRotationAdjust: set factor to 0.313
ElecMinimize: Iter:   5  F: -1905.997497180946766  |grad|_K:  2.366e-08  alpha:  8.318e-01  linmin: -2.089e-06  t[s]:   6058.91
	Linear fluid (dielectric constant: 78.4, screening length: 5.74355 Bohr) occupying 0.702040 of unit cell:	Completed after 2 iterations at t[s]:   6112.43
	Linear fluid (dielectric constant: 78.4, screening length: 5.74355 Bohr) occupying 0.702039 of unit cell:	Completed after 0 iterations at t[s]:   6161.51
	FillingsUpdate:  mu: -0.164027534  nElectrons: 704.000000  magneticMoment: [ Abs: 0.00000  Tot: +0.00000 ]
	SubspaceRotationAdjust: set factor to 0.303
ElecMinimize: Iter:   6  F: -1905.997497288738259  |grad|_K:  1.951e-08  alpha:  5.138e-01  linmin: -6.195e-06  t[s]:   6227.79
	Linear fluid (dielectric constant: 78.4, screening length: 5.74355 Bohr) occupying 0.702041 of unit cell:	Completed after 0 iterations at t[s]:   6280.96
	Linear fluid (dielectric constant: 78.4, screening length: 5.74355 Bohr) occupying 0.702041 of unit cell:	Completed after 0 iterations at t[s]:   6328.96
	FillingsUpdate:  mu: -0.164027723  nElectrons: 704.000000  magneticMoment: [ Abs: 0.00000  Tot: +0.00000 ]
	SubspaceRotationAdjust: set factor to 0.446
ElecMinimize: Iter:   7  F: -1905.997497442020631  |grad|_K:  1.736e-08  alpha:  6.555e-01  linmin:  3.092e-08  t[s]:   6394.89
	Linear fluid (dielectric constant: 78.4, screening length: 5.74355 Bohr) occupying 0.702043 of unit cell:	Completed after 3 iterations at t[s]:   6448.99
	Linear fluid (dielectric constant: 78.4, screening length: 5.74355 Bohr) occupying 0.702042 of unit cell:	Completed after 0 iterations at t[s]:   6497.98
ElecMinimize: 	Step increased F by 1.145690e-08, reducing alpha to 1.841140e-02.
	Linear fluid (dielectric constant: 78.4, screening length: 5.74355 Bohr) occupying 0.702041 of unit cell:	Completed after 0 iterations at t[s]:   6603.38
	FillingsUpdate:  mu: -0.163996821  nElectrons: 704.000000  magneticMoment: [ Abs: 0.00000  Tot: +0.00000 ]
	SubspaceRotationAdjust: set factor to 0.367
ElecMinimize: Iter:   8  F: -1905.997497461017019  |grad|_K:  2.231e-08  alpha:  1.841e-02  linmin:  8.317e-06  t[s]:   6669.00
	Linear fluid (dielectric constant: 78.4, screening length: 5.74355 Bohr) occupying 0.702041 of unit cell:	Completed after 0 iterations at t[s]:   6722.37
ElecMinimize: 	Predicted alpha/alphaT>3.000000, increasing alphaT to 5.523421e-02.
	Linear fluid (dielectric constant: 78.4, screening length: 5.74355 Bohr) occupying 0.702042 of unit cell:	Completed after 0 iterations at t[s]:   6769.53
	Linear fluid (dielectric constant: 78.4, screening length: 5.74355 Bohr) occupying 0.702042 of unit cell:	Completed after 0 iterations at t[s]:   6817.14
	FillingsUpdate:  mu: -0.163996840  nElectrons: 704.000000  magneticMoment: [ Abs: 0.00000  Tot: +0.00000 ]
	SubspaceRotationAdjust: set factor to 0.305
ElecMinimize: Iter:   9  F: -1905.997497485317126  |grad|_K:  1.887e-08  alpha:  1.582e-01  linmin: -4.926e-08  t[s]:   6884.18
	Linear fluid (dielectric constant: 78.4, screening length: 5.74355 Bohr) occupying 0.702042 of unit cell:	Completed after 0 iterations at t[s]:   6937.28
	Linear fluid (dielectric constant: 78.4, screening length: 5.74355 Bohr) occupying 0.702042 of unit cell:	Completed after 0 iterations at t[s]:   6984.79
	FillingsUpdate:  mu: -0.163996767  nElectrons: 704.000000  magneticMoment: [ Abs: 0.00000  Tot: +0.00000 ]
	SubspaceRotationAdjust: set factor to 0.353
ElecMinimize: Iter:  10  F: -1905.997497542768770  |grad|_K:  1.872e-08  alpha:  2.950e-01  linmin:  8.166e-08  t[s]:   7050.87
	Linear fluid (dielectric constant: 78.4, screening length: 5.74355 Bohr) occupying 0.702042 of unit cell:	Completed after 1 iterations at t[s]:   7104.50
	Linear fluid (dielectric constant: 78.4, screening length: 5.74355 Bohr) occupying 0.702042 of unit cell:	Completed after 0 iterations at t[s]:   7152.88
ElecMinimize: 	Step increased F by 1.151082e-07, reducing alpha to 3.556821e-03.
	Linear fluid (dielectric constant: 78.4, screening length: 5.74355 Bohr) occupying 0.702042 of unit cell:	Completed after 0 iterations at t[s]:   7257.52
ElecMinimize: 	Step increased F by 9.024711e-08, reducing alpha to 3.556821e-04.
	Linear fluid (dielectric constant: 78.4, screening length: 5.74355 Bohr) occupying 0.702042 of unit cell:	Completed after 0 iterations at t[s]:   7362.16
ElecMinimize: 	Step increased F by 8.775783e-08, reducing alpha to 3.556821e-05.
ElecMinimize: 	Step failed to reduce F after 3 attempts. Quitting step.
ElecMinimize: 	Undoing step.
	Linear fluid (dielectric constant: 78.4, screening length: 5.74355 Bohr) occupying 0.702042 of unit cell:	Completed after 0 iterations at t[s]:   7465.43
ElecMinimize: 	Step failed: resetting search direction.
	FillingsUpdate:  mu: -0.164045265  nElectrons: 704.000000  magneticMoment: [ Abs: 0.00000  Tot: +0.00000 ]
	SubspaceRotationAdjust: set factor to 0.259
ElecMinimize: Iter:  11  F: -1905.997497454997074  |grad|_K:  2.723e-08  alpha:  3.557e-05
	Linear fluid (dielectric constant: 78.4, screening length: 5.74355 Bohr) occupying 0.702042 of unit cell:	Completed after 1 iterations at t[s]:   7585.03
	Linear fluid (dielectric constant: 78.4, screening length: 5.74355 Bohr) occupying 0.702042 of unit cell:	Completed after 0 iterations at t[s]:   7633.25
	FillingsUpdate:  mu: -0.164036236  nElectrons: 704.000000  magneticMoment: [ Abs: 0.00000  Tot: +0.00000 ]
	SubspaceRotationAdjust: set factor to 0.276
ElecMinimize: Iter:  12  F: -1905.997497493192213  |grad|_K:  1.052e-08  alpha:  2.033e-01  linmin: -2.226e-04  t[s]:   7699.29
	Linear fluid (dielectric constant: 78.4, screening length: 5.74355 Bohr) occupying 0.702042 of unit cell:	Completed after 0 iterations at t[s]:   7752.26
ElecMinimize: 	Predicted alpha/alphaT>3.000000, increasing alphaT to 6.098159e-01.
	Linear fluid (dielectric constant: 78.4, screening length: 5.74355 Bohr) occupying 0.702042 of unit cell:	Completed after 1 iterations at t[s]:   7799.71
	Linear fluid (dielectric constant: 78.4, screening length: 5.74355 Bohr) occupying 0.702042 of unit cell:	Completed after 0 iterations at t[s]:   7848.38
ElecMinimize: 	Step increased F by 3.746277e-08, reducing alpha to 2.197360e-02.
	Linear fluid (dielectric constant: 78.4, screening length: 5.74355 Bohr) occupying 0.702042 of unit cell:	Completed after 0 iterations at t[s]:   7953.09
ElecMinimize: 	Step increased F by 4.654817e-08, reducing alpha to 2.197360e-03.
	Linear fluid (dielectric constant: 78.4, screening length: 5.74355 Bohr) occupying 0.702042 of unit cell:	Completed after 0 iterations at t[s]:   8057.93
ElecMinimize: 	Step increased F by 4.782419e-08, reducing alpha to 2.197360e-04.
ElecMinimize: 	Step failed to reduce F after 3 attempts. Quitting step.
ElecMinimize: 	Undoing step.
	Linear fluid (dielectric constant: 78.4, screening length: 5.74355 Bohr) occupying 0.702042 of unit cell:	Completed after 0 iterations at t[s]:   8163.04
ElecMinimize: 	Step failed: resetting search direction.
	FillingsUpdate:  mu: -0.164010675  nElectrons: 704.000000  magneticMoment: [ Abs: 0.00000  Tot: +0.00000 ]
	SubspaceRotationAdjust: set factor to 0.293
ElecMinimize: Iter:  13  F: -1905.997497445380986  |grad|_K:  6.945e-09  alpha:  2.197e-04
	Linear fluid (dielectric constant: 78.4, screening length: 5.74355 Bohr) occupying 0.702042 of unit cell:	Completed after 0 iterations at t[s]:   8282.37
ElecMinimize: 	Predicted alpha/alphaT>3.000000, increasing alphaT to 6.098159e-01.
	Linear fluid (dielectric constant: 78.4, screening length: 5.74355 Bohr) occupying 0.702042 of unit cell:	Completed after 0 iterations at t[s]:   8329.96
	Linear fluid (dielectric constant: 78.4, screening length: 5.74355 Bohr) occupying 0.702042 of unit cell:	Completed after 0 iterations at t[s]:   8377.54
	FillingsUpdate:  mu: -0.164010667  nElectrons: 704.000000  magneticMoment: [ Abs: 0.00000  Tot: +0.00000 ]
	SubspaceRotationAdjust: set factor to 0.311
ElecMinimize: Iter:  14  F: -1905.997497462102501  |grad|_K:  4.650e-09  alpha:  6.355e-01  linmin:  2.333e-07  t[s]:   8443.91
	Linear fluid (dielectric constant: 78.4, screening length: 5.74355 Bohr) occupying 0.702041 of unit cell:	Completed after 0 iterations at t[s]:   8497.09
	Linear fluid (dielectric constant: 78.4, screening length: 5.74355 Bohr) occupying 0.702040 of unit cell:	Completed after 0 iterations at t[s]:   8544.51
	FillingsUpdate:  mu: -0.164010646  nElectrons: 704.000000  magneticMoment: [ Abs: 0.00000  Tot: +0.00000 ]
	SubspaceRotationAdjust: set factor to 0.353
ElecMinimize: Iter:  15  F: -1905.997497471507359  |grad|_K:  2.657e-09  alpha:  8.103e-01  linmin:  5.138e-07  t[s]:   8610.81
	Linear fluid (dielectric constant: 78.4, screening length: 5.74355 Bohr) occupying 0.702040 of unit cell:	Completed after 0 iterations at t[s]:   8663.78
	Linear fluid (dielectric constant: 78.4, screening length: 5.74355 Bohr) occupying 0.702040 of unit cell:	Completed after 0 iterations at t[s]:   8711.70
	FillingsUpdate:  mu: -0.164010638  nElectrons: 704.000000  magneticMoment: [ Abs: 0.00000  Tot: +0.00000 ]
	SubspaceRotationAdjust: set factor to 0.393
ElecMinimize: Iter:  16  F: -1905.997497474750162  |grad|_K:  2.043e-09  alpha:  8.572e-01  linmin:  1.547e-07  t[s]:   8777.88
ElecMinimize: Converged (|Delta F|<1.000000e-08 for 2 iters).
Setting wave functions to eigenvectors of Hamiltonian
Single-point solvation energy estimate, DeltaF = +0.009950640376701

# Ionic positions in lattice coordinates:
ion Zr   0.125000000000000   0.000000000000000   0.596443348833333 1
ion Zr   0.000000000000000   0.125000000000000   0.403553307833333 1
ion Zr   0.375000000000000   0.000000000000000   0.596443348833333 1
ion Zr   0.250000000000000   0.125000000000000   0.403553307833333 1
ion Zr   0.625000000000000   0.000000000000000   0.596443348833333 1
ion Zr   0.500000000000000   0.125000000000000   0.403553307833333 1
ion Zr   0.875000000000000   0.000000000000000   0.596443348833333 1
ion Zr   0.750000000000000   0.125000000000000   0.403553307833333 1
ion Zr   0.125000000000000   0.250000000000000   0.596443348833333 1
ion Zr   0.000000000000000   0.375000000000000   0.403553307833333 1
ion Zr   0.375000000000000   0.250000000000000   0.596443348833333 1
ion Zr   0.250000000000000   0.375000000000000   0.403553307833333 1
ion Zr   0.625000000000000   0.250000000000000   0.596443348833333 1
ion Zr   0.500000000000000   0.375000000000000   0.403553307833333 1
ion Zr   0.875000000000000   0.250000000000000   0.596443348833333 1
ion Zr   0.750000000000000   0.375000000000000   0.403553307833333 1
ion Zr   0.125000000000000   0.500000000000000   0.596443348833333 1
ion Zr   0.000000000000000   0.625000000000000   0.403553307833333 1
ion Zr   0.375000000000000   0.500000000000000   0.596443348833333 1
ion Zr   0.250000000000000   0.625000000000000   0.403553307833333 1
ion Zr   0.625000000000000   0.500000000000000   0.596443348833333 1
ion Zr   0.500000000000000   0.625000000000000   0.403553307833333 1
ion Zr   0.875000000000000   0.500000000000000   0.596443348833333 1
ion Zr   0.750000000000000   0.625000000000000   0.403553307833333 1
ion Zr   0.125000000000000   0.750000000000000   0.596443348833333 1
ion Zr   0.000000000000000   0.875000000000000   0.403553307833333 1
ion Zr   0.375000000000000   0.750000000000000   0.596443348833333 1
ion Zr   0.250000000000000   0.875000000000000   0.403553307833333 1
ion Zr   0.625000000000000   0.750000000000000   0.596443348833333 1
ion Zr   0.500000000000000   0.875000000000000   0.403553307833333 1
ion Zr   0.875000000000000   0.750000000000000   0.596443348833333 1
ion Zr   0.750000000000000   0.875000000000000   0.403553307833333 1
ion Si   0.125000000000000   0.125000000000000   0.499998328333333 1
ion Si   0.000000000000000   0.000000000000000   0.499998328333333 1
ion Si   0.375000000000000   0.125000000000000   0.499998328333333 1
ion Si   0.250000000000000   0.000000000000000   0.499998328333333 1
ion Si   0.625000000000000   0.125000000000000   0.499998328333333 1
ion Si   0.500000000000000   0.000000000000000   0.499998328333333 1
ion Si   0.875000000000000   0.125000000000000   0.499998328333333 1
ion Si   0.750000000000000   0.000000000000000   0.499998328333333 1
ion Si   0.125000000000000   0.375000000000000   0.499998328333333 1
ion Si   0.000000000000000   0.250000000000000   0.499998328333333 1
ion Si   0.375000000000000   0.375000000000000   0.499998328333333 1
ion Si   0.250000000000000   0.250000000000000   0.499998328333333 1
ion Si   0.625000000000000   0.375000000000000   0.499998328333333 1
ion Si   0.500000000000000   0.250000000000000   0.499998328333333 1
ion Si   0.875000000000000   0.375000000000000   0.499998328333333 1
ion Si   0.750000000000000   0.250000000000000   0.499998328333333 1
ion Si   0.125000000000000   0.625000000000000   0.499998328333333 1
ion Si   0.000000000000000   0.500000000000000   0.499998328333333 1
ion Si   0.375000000000000   0.625000000000000   0.499998328333333 1
ion Si   0.250000000000000   0.500000000000000   0.499998328333333 1
ion Si   0.625000000000000   0.625000000000000   0.499998328333333 1
ion Si   0.500000000000000   0.500000000000000   0.499998328333333 1
ion Si   0.875000000000000   0.625000000000000   0.499998328333333 1
ion Si   0.750000000000000   0.500000000000000   0.499998328333333 1
ion Si   0.125000000000000   0.875000000000000   0.499998328333333 1
ion Si   0.000000000000000   0.750000000000000   0.499998328333333 1
ion Si   0.375000000000000   0.875000000000000   0.499998328333333 1
ion Si   0.250000000000000   0.750000000000000   0.499998328333333 1
ion Si   0.625000000000000   0.875000000000000   0.499998328333333 1
ion Si   0.500000000000000   0.750000000000000   0.499998328333333 1
ion Si   0.875000000000000   0.875000000000000   0.499998328333333 1
ion Si   0.750000000000000   0.750000000000000   0.499998328333333 1
ion Te   0.000000000000000   0.125000000000000   0.660008322833333 1
ion Te   0.125000000000000   0.000000000000000   0.339988333833333 1
ion Te   0.250000000000000   0.125000000000000   0.660008322833333 1
ion Te   0.375000000000000   0.000000000000000   0.339988333833333 1
ion Te   0.500000000000000   0.125000000000000   0.660008322833333 1
ion Te   0.625000000000000   0.000000000000000   0.339988333833333 1
ion Te   0.750000000000000   0.125000000000000   0.660008322833333 1
ion Te   0.875000000000000   0.000000000000000   0.339988333833333 1
ion Te   0.000000000000000   0.375000000000000   0.660008322833333 1
ion Te   0.125000000000000   0.250000000000000   0.339988333833333 1
ion Te   0.250000000000000   0.375000000000000   0.660008322833333 1
ion Te   0.375000000000000   0.250000000000000   0.339988333833333 1
ion Te   0.500000000000000   0.375000000000000   0.660008322833333 1
ion Te   0.625000000000000   0.250000000000000   0.339988333833333 1
ion Te   0.750000000000000   0.375000000000000   0.660008322833333 1
ion Te   0.875000000000000   0.250000000000000   0.339988333833333 1
ion Te   0.000000000000000   0.625000000000000   0.660008322833333 1
ion Te   0.125000000000000   0.500000000000000   0.339988333833333 1
ion Te   0.250000000000000   0.625000000000000   0.660008322833333 1
ion Te   0.375000000000000   0.500000000000000   0.339988333833333 1
ion Te   0.500000000000000   0.625000000000000   0.660008322833333 1
ion Te   0.625000000000000   0.500000000000000   0.339988333833333 1
ion Te   0.750000000000000   0.625000000000000   0.660008322833333 1
ion Te   0.875000000000000   0.500000000000000   0.339988333833333 1
ion Te   0.000000000000000   0.875000000000000   0.660008322833333 1
ion Te   0.125000000000000   0.750000000000000   0.339988333833333 1
ion Te   0.250000000000000   0.875000000000000   0.660008322833333 1
ion Te   0.375000000000000   0.750000000000000   0.339988333833333 1
ion Te   0.500000000000000   0.875000000000000   0.660008322833333 1
ion Te   0.625000000000000   0.750000000000000   0.339988333833333 1
ion Te   0.750000000000000   0.875000000000000   0.660008322833333 1
ion Te   0.875000000000000   0.750000000000000   0.339988333833333 1


# Forces in Lattice coordinates:
force Zr  -0.000000000000000   0.000000000000000   0.065914906275425 1
force Zr   0.000000000000000   0.000000000000000  -0.065914906275880 1
force Zr   0.000000000000000  -0.000000000000000   0.065914906275880 1
force Zr  -0.000000000000000  -0.000000000000000  -0.065914906276107 1
force Zr   0.000000000000000  -0.000000000000000   0.065914906276107 1
force Zr  -0.000000000000000  -0.000000000000000  -0.065914906276562 1
force Zr  -0.000000000000000  -0.000000000000000   0.065914906275880 1
force Zr   0.000000000000000  -0.000000000000000  -0.065914906276789 1
force Zr  -0.000000000000000  -0.000000000000000   0.065914906275425 1
force Zr   0.000000000000000  -0.000000000000000  -0.065914906276335 1
force Zr   0.000000000000000   0.000000000000000   0.065914906275880 1
force Zr  -0.000000000000000  -0.000000000000000  -0.065914906276334 1
force Zr  -0.000000000000000   0.000000000000000   0.065914906275880 1
force Zr  -0.000000000000000  -0.000000000000000  -0.065914906276562 1
force Zr  -0.000000000000000   0.000000000000000   0.065914906275653 1
force Zr   0.000000000000000  -0.000000000000000  -0.065914906276335 1
force Zr   0.000000000000000   0.000000000000000   0.065914906276107 1
force Zr   0.000000000000000   0.000000000000000  -0.065914906276562 1
force Zr   0.000000000000000   0.000000000000000   0.065914906275652 1
force Zr  -0.000000000000000   0.000000000000000  -0.065914906276562 1
force Zr   0.000000000000000  -0.000000000000000   0.065914906275652 1
force Zr  -0.000000000000000   0.000000000000000  -0.065914906277017 1
force Zr  -0.000000000000000  -0.000000000000000   0.065914906276335 1
force Zr   0.000000000000000   0.000000000000000  -0.065914906277017 1
force Zr   0.000000000000000  -0.000000000000000   0.065914906276107 1
force Zr   0.000000000000000   0.000000000000000  -0.065914906276107 1
force Zr   0.000000000000000  -0.000000000000000   0.065914906276334 1
force Zr  -0.000000000000000  -0.000000000000000  -0.065914906276107 1
force Zr   0.000000000000000  -0.000000000000000   0.065914906276334 1
force Zr  -0.000000000000000   0.000000000000000  -0.065914906276789 1
force Zr  -0.000000000000000  -0.000000000000000   0.065914906276562 1
force Zr   0.000000000000000   0.000000000000000  -0.065914906276789 1
force Si   0.000000000000000  -0.000000000000000   0.000000000000000 1
force Si   0.000000000000000   0.000000000000000  -0.000000000000000 1
force Si   0.000000000000000  -0.000000000000000   0.000000000000000 1
force Si  -0.000000000000000   0.000000000000000   0.000000000000000 1
force Si   0.000000000000000   0.000000000000000   0.000000000000000 1
force Si   0.000000000000000   0.000000000000000   0.000000000000000 1
force Si  -0.000000000000000  -0.000000000000000  -0.000000000000000 1
force Si  -0.000000000000000   0.000000000000000  -0.000000000000000 1
force Si   0.000000000000000  -0.000000000000000  -0.000000000000000 1
force Si   0.000000000000000   0.000000000000000  -0.000000000000000 1
force Si   0.000000000000000  -0.000000000000000  -0.000000000000000 1
force Si  -0.000000000000000   0.000000000000000   0.000000000000000 1
force Si  -0.000000000000000   0.000000000000000   0.000000000000000 1
force Si   0.000000000000000  -0.000000000000000   0.000000000000000 1
force Si   0.000000000000000  -0.000000000000000   0.000000000000000 1
force Si   0.000000000000000  -0.000000000000000  -0.000000000000000 1
force Si  -0.000000000000000  -0.000000000000000  -0.000000000000000 1
force Si  -0.000000000000000   0.000000000000000  -0.000000000000000 1
force Si  -0.000000000000000   0.000000000000000  -0.000000000000000 1
force Si   0.000000000000000   0.000000000000000  -0.000000000000000 1
force Si   0.000000000000000  -0.000000000000000   0.000000000000000 1
force Si   0.000000000000000   0.000000000000000  -0.000000000000000 1
force Si  -0.000000000000000  -0.000000000000000  -0.000000000000000 1
force Si  -0.000000000000000  -0.000000000000000   0.000000000000000 1
force Si  -0.000000000000000   0.000000000000000   0.000000000000000 1
force Si   0.000000000000000   0.000000000000000   0.000000000000000 1
force Si   0.000000000000000   0.000000000000000   0.000000000000000 1
force Si  -0.000000000000000  -0.000000000000000   0.000000000000000 1
force Si   0.000000000000000  -0.000000000000000  -0.000000000000000 1
force Si  -0.000000000000000   0.000000000000000   0.000000000000000 1
force Si  -0.000000000000000   0.000000000000000   0.000000000000000 1
force Si   0.000000000000000   0.000000000000000  -0.000000000000000 1
force Te  -0.000000000000000  -0.000000000000000   0.093741414819859 1
force Te   0.000000000000000  -0.000000000000000  -0.093741414820086 1
force Te   0.000000000000000   0.000000000000000   0.093741414819858 1
force Te   0.000000000000000   0.000000000000000  -0.093741414819972 1
force Te  -0.000000000000000   0.000000000000000   0.093741414819859 1
force Te  -0.000000000000000  -0.000000000000000  -0.093741414819859 1
force Te   0.000000000000000   0.000000000000000   0.093741414819858 1
force Te  -0.000000000000000  -0.000000000000000  -0.093741414820086 1
force Te  -0.000000000000000  -0.000000000000000   0.093741414819859 1
force Te  -0.000000000000000   0.000000000000000  -0.093741414820086 1
force Te   0.000000000000000  -0.000000000000000   0.093741414819972 1
force Te   0.000000000000000   0.000000000000000  -0.093741414819972 1
force Te  -0.000000000000000  -0.000000000000000   0.093741414819859 1
force Te  -0.000000000000000   0.000000000000000  -0.093741414819972 1
force Te  -0.000000000000000  -0.000000000000000   0.093741414819859 1
force Te  -0.000000000000000   0.000000000000000  -0.093741414819972 1
force Te  -0.000000000000000   0.000000000000000   0.093741414819972 1
force Te  -0.000000000000000   0.000000000000000  -0.093741414819973 1
force Te   0.000000000000000   0.000000000000000   0.093741414819972 1
force Te   0.000000000000000   0.000000000000000  -0.093741414819972 1
force Te  -0.000000000000000   0.000000000000000   0.093741414819972 1
force Te  -0.000000000000000  -0.000000000000000  -0.093741414819859 1
force Te   0.000000000000000   0.000000000000000   0.093741414819858 1
force Te  -0.000000000000000  -0.000000000000000  -0.093741414820086 1
force Te  -0.000000000000000  -0.000000000000000   0.093741414819972 1
force Te   0.000000000000000  -0.000000000000000  -0.093741414820086 1
force Te   0.000000000000000  -0.000000000000000   0.093741414819972 1
force Te   0.000000000000000  -0.000000000000000  -0.093741414819972 1
force Te  -0.000000000000000  -0.000000000000000   0.093741414819859 1
force Te   0.000000000000000  -0.000000000000000  -0.093741414819972 1
force Te   0.000000000000000   0.000000000000000   0.093741414819859 1
force Te  -0.000000000000000  -0.000000000000000  -0.093741414819972 1

# Energy components:
   A_diel =        0.0096699602618477
   Eewald =    17020.7697181060939329
       EH =    18593.2763815443686326
     Eloc =   -37863.3683561871948768
      Enl =       98.8421068580484246
      Exc =     -586.8191625151919197
 Exc_core =      260.8322775732224272
       KE =      570.5383247889922131
-------------------------------------
     Etot =    -1905.9190398713963077
       TS =        0.0784576033538339
-------------------------------------
        F =    -1905.9974974747501619

IonicMinimize: Iter:   0  F: -1905.997497474750162  |grad|_K:  9.163e-04  t[s]:   8821.20

#--- Lowdin population analysis ---
# oxidation-state Zr -0.694 -0.694 -0.694 -0.694 -0.694 -0.694 -0.694 -0.694 -0.694 -0.694 -0.694 -0.694 -0.694 -0.694 -0.694 -0.694 -0.694 -0.694 -0.694 -0.694 -0.694 -0.694 -0.694 -0.694 -0.694 -0.694 -0.694 -0.694 -0.694 -0.694 -0.694 -0.694
# magnetic-moments Zr +0.000 +0.000 +0.000 +0.000 +0.000 +0.000 +0.000 +0.000 +0.000 +0.000 +0.000 +0.000 +0.000 +0.000 +0.000 +0.000 +0.000 +0.000 +0.000 +0.000 +0.000 +0.000 +0.000 +0.000 +0.000 +0.000 +0.000 +0.000 +0.000 +0.000 +0.000 +0.000
# oxidation-state Si +0.330 +0.330 +0.330 +0.330 +0.330 +0.330 +0.330 +0.330 +0.330 +0.330 +0.330 +0.330 +0.330 +0.330 +0.330 +0.330 +0.330 +0.330 +0.330 +0.330 +0.330 +0.330 +0.330 +0.330 +0.330 +0.330 +0.330 +0.330 +0.330 +0.330 +0.330 +0.330
# magnetic-moments Si +0.000 +0.000 +0.000 +0.000 +0.000 +0.000 +0.000 +0.000 +0.000 +0.000 +0.000 +0.000 +0.000 +0.000 +0.000 +0.000 +0.000 +0.000 +0.000 +0.000 +0.000 +0.000 +0.000 +0.000 +0.000 +0.000 +0.000 +0.000 +0.000 +0.000 +0.000 +0.000
# oxidation-state Te +0.443 +0.443 +0.443 +0.443 +0.443 +0.443 +0.443 +0.443 +0.443 +0.443 +0.443 +0.443 +0.443 +0.443 +0.443 +0.443 +0.443 +0.443 +0.443 +0.443 +0.443 +0.443 +0.443 +0.443 +0.443 +0.443 +0.443 +0.443 +0.443 +0.443 +0.443 +0.443
# magnetic-moments Te -0.000 -0.000 -0.000 -0.000 -0.000 -0.000 -0.000 -0.000 -0.000 -0.000 -0.000 -0.000 -0.000 -0.000 -0.000 -0.000 -0.000 -0.000 -0.000 -0.000 -0.000 -0.000 -0.000 -0.000 -0.000 -0.000 -0.000 -0.000 -0.000 -0.000 -0.000 -0.000

	Linear fluid (dielectric constant: 78.4, screening length: 5.74355 Bohr) occupying 0.701996 of unit cell:	Completed after 5 iterations at t[s]:   8878.44

-------- Electronic minimization -----------
	Linear fluid (dielectric constant: 78.4, screening length: 5.74355 Bohr) occupying 0.701996 of unit cell:	Completed after 0 iterations at t[s]:   8910.03
	FillingsUpdate:  mu: -0.163559295  nElectrons: 704.000000  magneticMoment: [ Abs: 0.00002  Tot: +0.00000 ]
ElecMinimize: Iter:   0  F: -1905.997708754810674  |grad|_K:  2.098e-07  alpha:  1.000e+00
	Linear fluid (dielectric constant: 78.4, screening length: 5.74355 Bohr) occupying 0.701978 of unit cell:	Completed after 9 iterations at t[s]:   9041.61
	Linear fluid (dielectric constant: 78.4, screening length: 5.74355 Bohr) occupying 0.701986 of unit cell:	Completed after 8 iterations at t[s]:   9093.73
	FillingsUpdate:  mu: -0.164236101  nElectrons: 704.000000  magneticMoment: [ Abs: 0.00002  Tot: -0.00000 ]
	SubspaceRotationAdjust: set factor to 0.245
ElecMinimize: Iter:   1  F: -1905.997721902916055  |grad|_K:  1.357e-07  alpha:  5.293e-01  linmin:  1.499e-04  t[s]:   9162.45
	Linear fluid (dielectric constant: 78.4, screening length: 5.74355 Bohr) occupying 0.701987 of unit cell:	Completed after 3 iterations at t[s]:   9215.97
	Linear fluid (dielectric constant: 78.4, screening length: 5.74355 Bohr) occupying 0.701987 of unit cell:	Completed after 2 iterations at t[s]:   9266.07
	FillingsUpdate:  mu: -0.164029157  nElectrons: 704.000000  magneticMoment: [ Abs: 0.00001  Tot: -0.00000 ]
	SubspaceRotationAdjust: set factor to 0.281
ElecMinimize: Iter:   2  F: -1905.997730891994479  |grad|_K:  8.165e-08  alpha:  9.212e-01  linmin:  1.937e-04  t[s]:   9332.84
	Linear fluid (dielectric constant: 78.4, screening length: 5.74355 Bohr) occupying 0.701988 of unit cell:	Completed after 2 iterations at t[s]:   9386.32
	Linear fluid (dielectric constant: 78.4, screening length: 5.74355 Bohr) occupying 0.701988 of unit cell:	Completed after 0 iterations at t[s]:   9435.17
	FillingsUpdate:  mu: -0.163987328  nElectrons: 704.000000  magneticMoment: [ Abs: 0.00001  Tot: -0.00000 ]
	SubspaceRotationAdjust: set factor to 0.408
ElecMinimize: Iter:   3  F: -1905.997733940692569  |grad|_K:  3.885e-08  alpha:  8.676e-01  linmin: -7.379e-05  t[s]:   9500.97
	Linear fluid (dielectric constant: 78.4, screening length: 5.74355 Bohr) occupying 0.701988 of unit cell:	Completed after 2 iterations at t[s]:   9554.40
	Linear fluid (dielectric constant: 78.4, screening length: 5.74355 Bohr) occupying 0.701988 of unit cell:	Completed after 0 iterations at t[s]:   9602.97
	FillingsUpdate:  mu: -0.164000260  nElectrons: 704.000000  magneticMoment: [ Abs: 0.00000  Tot: -0.00000 ]
	SubspaceRotationAdjust: set factor to 0.461
ElecMinimize: Iter:   4  F: -1905.997734491460960  |grad|_K:  1.839e-08  alpha:  6.647e-01  linmin: -8.436e-06  t[s]:   9668.98
	Linear fluid (dielectric constant: 78.4, screening length: 5.74355 Bohr) occupying 0.701989 of unit cell:	Completed after 0 iterations at t[s]:   9722.14
	Linear fluid (dielectric constant: 78.4, screening length: 5.74355 Bohr) occupying 0.701989 of unit cell:	Completed after 0 iterations at t[s]:   9770.05
	FillingsUpdate:  mu: -0.164000391  nElectrons: 704.000000  magneticMoment: [ Abs: 0.00000  Tot: -0.00000 ]
	SubspaceRotationAdjust: set factor to 0.591
ElecMinimize: Iter:   5  F: -1905.997734648235792  |grad|_K:  1.047e-08  alpha:  8.391e-01  linmin:  6.682e-08  t[s]:   9836.62
	Linear fluid (dielectric constant: 78.4, screening length: 5.74355 Bohr) occupying 0.701989 of unit cell:	Completed after 0 iterations at t[s]:   9889.76
	Linear fluid (dielectric constant: 78.4, screening length: 5.74355 Bohr) occupying 0.701989 of unit cell:	Completed after 0 iterations at t[s]:   9937.81
	FillingsUpdate:  mu: -0.164000196  nElectrons: 704.000000  magneticMoment: [ Abs: 0.00000  Tot: -0.00000 ]
	SubspaceRotationAdjust: set factor to 0.794
ElecMinimize: Iter:   6  F: -1905.997734661187678  |grad|_K:  5.490e-09  alpha:  4.746e-01  linmin: -3.082e-05  t[s]:  10004.21
	Linear fluid (dielectric constant: 78.4, screening length: 5.74355 Bohr) occupying 0.701989 of unit cell:	Completed after 0 iterations at t[s]:  10057.19
	Linear fluid (dielectric constant: 78.4, screening length: 5.74355 Bohr) occupying 0.701989 of unit cell:	Completed after 0 iterations at t[s]:  10104.94
	FillingsUpdate:  mu: -0.164000239  nElectrons: 704.000000  magneticMoment: [ Abs: 0.00000  Tot: -0.00000 ]
	SubspaceRotationAdjust: set factor to 0.974
ElecMinimize: Iter:   7  F: -1905.997734675927177  |grad|_K:  3.339e-09  alpha:  7.178e-01  linmin: -1.193e-07  t[s]:  10171.07
	Linear fluid (dielectric constant: 78.4, screening length: 5.74355 Bohr) occupying 0.701988 of unit cell:	Completed after 0 iterations at t[s]:  10224.05
	Linear fluid (dielectric constant: 78.4, screening length: 5.74355 Bohr) occupying 0.701988 of unit cell:	Completed after 0 iterations at t[s]:  10271.93
	FillingsUpdate:  mu: -0.164000276  nElectrons: 704.000000  magneticMoment: [ Abs: 0.00000  Tot: -0.00000 ]
	SubspaceRotationAdjust: set factor to 1.12
ElecMinimize: Iter:   8  F: -1905.997734679388259  |grad|_K:  1.948e-09  alpha:  5.591e-01  linmin: -5.089e-08  t[s]:  10338.49
	Linear fluid (dielectric constant: 78.4, screening length: 5.74355 Bohr) occupying 0.701988 of unit cell:	Completed after 0 iterations at t[s]:  10391.97
	Linear fluid (dielectric constant: 78.4, screening length: 5.74355 Bohr) occupying 0.701988 of unit cell:	Completed after 0 iterations at t[s]:  10439.79
	FillingsUpdate:  mu: -0.164000302  nElectrons: 704.000000  magneticMoment: [ Abs: 0.00000  Tot: -0.00000 ]
	SubspaceRotationAdjust: set factor to 1.31
ElecMinimize: Iter:   9  F: -1905.997734680644498  |grad|_K:  1.029e-09  alpha:  5.841e-01  linmin: -1.313e-06  t[s]:  10506.31
ElecMinimize: Converged (|Delta F|<1.000000e-08 for 2 iters).
Setting wave functions to eigenvectors of Hamiltonian
IonicMinimize: 	Wolfe criterion not satisfied: alpha: 1  (E-E0)/|gdotd0|: -0.980885  gdotd/gdotd0: 0.90753 (taking cubic step)
	Linear fluid (dielectric constant: 78.4, screening length: 5.74355 Bohr) occupying 0.701915 of unit cell:	Completed after 6 iterations at t[s]:  10606.54

-------- Electronic minimization -----------
	Linear fluid (dielectric constant: 78.4, screening length: 5.74355 Bohr) occupying 0.701915 of unit cell:	Completed after 0 iterations at t[s]:  10638.13
	FillingsUpdate:  mu: -0.163227437  nElectrons: 704.000000  magneticMoment: [ Abs: 0.00006  Tot: -0.00000 ]
ElecMinimize: Iter:   0  F: -1905.998040816143657  |grad|_K:  5.872e-07  alpha:  1.000e+00
	Linear fluid (dielectric constant: 78.4, screening length: 5.74355 Bohr) occupying 0.701786 of unit cell:	Completed after 11 iterations at t[s]:  10769.86
	Linear fluid (dielectric constant: 78.4, screening length: 5.74355 Bohr) occupying 0.701894 of unit cell:	Completed after 9 iterations at t[s]:  10822.79
	FillingsUpdate:  mu: -0.164343503  nElectrons: 704.000000  magneticMoment: [ Abs: 0.00004  Tot: -0.00000 ]
	SubspaceRotationAdjust: set factor to 0.743
ElecMinimize: Iter:   1  F: -1905.998074024087373  |grad|_K:  3.954e-07  alpha:  1.672e-01  linmin: -1.535e-04  t[s]:  10892.21
	Linear fluid (dielectric constant: 78.4, screening length: 5.74355 Bohr) occupying 0.701893 of unit cell:	Completed after 2 iterations at t[s]:  10946.17
	Linear fluid (dielectric constant: 78.4, screening length: 5.74355 Bohr) occupying 0.701892 of unit cell:	Completed after 3 iterations at t[s]:  10995.47
	FillingsUpdate:  mu: -0.164092114  nElectrons: 704.000000  magneticMoment: [ Abs: 0.00001  Tot: -0.00000 ]
	SubspaceRotationAdjust: set factor to 0.471
ElecMinimize: Iter:   2  F: -1905.998106050172055  |grad|_K:  1.909e-07  alpha:  3.762e-01  linmin:  3.732e-04  t[s]:  11063.36
	Linear fluid (dielectric constant: 78.4, screening length: 5.74355 Bohr) occupying 0.701898 of unit cell:	Completed after 3 iterations at t[s]:  11117.40
	Linear fluid (dielectric constant: 78.4, screening length: 5.74355 Bohr) occupying 0.701898 of unit cell:	Completed after 0 iterations at t[s]:  11166.21
	FillingsUpdate:  mu: -0.163968643  nElectrons: 704.000000  magneticMoment: [ Abs: 0.00001  Tot: -0.00000 ]
	SubspaceRotationAdjust: set factor to 0.733
ElecMinimize: Iter:   3  F: -1905.998113024799522  |grad|_K:  4.865e-08  alpha:  3.625e-01  linmin: -2.201e-04  t[s]:  11232.74
	Linear fluid (dielectric constant: 78.4, screening length: 5.74355 Bohr) occupying 0.701899 of unit cell:	Completed after 0 iterations at t[s]:  11285.62
	Linear fluid (dielectric constant: 78.4, screening length: 5.74355 Bohr) occupying 0.701901 of unit cell:	Completed after 2 iterations at t[s]:  11334.08
	FillingsUpdate:  mu: -0.164028105  nElectrons: 704.000000  magneticMoment: [ Abs: 0.00001  Tot: -0.00000 ]
	SubspaceRotationAdjust: set factor to 0.565
ElecMinimize: Iter:   4  F: -1905.998113127207944  |grad|_K:  7.297e-08  alpha:  1.035e+00  linmin:  1.614e-03  t[s]:  11401.43
	Linear fluid (dielectric constant: 78.4, screening length: 5.74355 Bohr) occupying 0.701913 of unit cell:	Completed after 3 iterations at t[s]:  11455.47
	Linear fluid (dielectric constant: 78.4, screening length: 5.74355 Bohr) occupying 0.701902 of unit cell:	Completed after 2 iterations at t[s]:  11505.50
	FillingsUpdate:  mu: -0.163944620  nElectrons: 704.000000  magneticMoment: [ Abs: 0.00001  Tot: -0.00000 ]
	SubspaceRotationAdjust: set factor to 0.642
ElecMinimize: Iter:   5  F: -1905.998113171949853  |grad|_K:  5.515e-08  alpha:  5.005e-02  linmin:  4.476e-05  t[s]:  11572.58
	Linear fluid (dielectric constant: 78.4, screening length: 5.74355 Bohr) occupying 0.701902 of unit cell:	Completed after 0 iterations at t[s]:  11625.78
ElecMinimize: 	Predicted alpha/alphaT>3.000000, increasing alphaT to 1.501565e-01.
	Linear fluid (dielectric constant: 78.4, screening length: 5.74355 Bohr) occupying 0.701903 of unit cell:	Completed after 0 iterations at t[s]:  11673.48
ElecMinimize: 	Predicted alpha/alphaT>3.000000, increasing alphaT to 4.504696e-01.
	Linear fluid (dielectric constant: 78.4, screening length: 5.74355 Bohr) occupying 0.701904 of unit cell:	Completed after 3 iterations at t[s]:  11721.57
	Linear fluid (dielectric constant: 78.4, screening length: 5.74355 Bohr) occupying 0.701903 of unit cell:	Completed after 0 iterations at t[s]:  11770.25
	FillingsUpdate:  mu: -0.163863155  nElectrons: 704.000000  magneticMoment: [ Abs: 0.00001  Tot: -0.00000 ]
	SubspaceRotationAdjust: set factor to 0.451
ElecMinimize: Iter:   6  F: -1905.998113750316861  |grad|_K:  4.585e-08  alpha:  2.799e-01  linmin:  3.391e-04  t[s]:  11836.76
	Linear fluid (dielectric constant: 78.4, screening length: 5.74355 Bohr) occupying 0.701902 of unit cell:	Completed after 0 iterations at t[s]:  11889.62
	Linear fluid (dielectric constant: 78.4, screening length: 5.74355 Bohr) occupying 0.701902 of unit cell:	Completed after 0 iterations at t[s]:  11937.36
	FillingsUpdate:  mu: -0.163862730  nElectrons: 704.000000  magneticMoment: [ Abs: 0.00001  Tot: +0.00000 ]
	SubspaceRotationAdjust: set factor to 0.387
ElecMinimize: Iter:   7  F: -1905.998113999781935  |grad|_K:  3.737e-08  alpha:  3.708e-01  linmin: -9.181e-09  t[s]:  12003.88
	Linear fluid (dielectric constant: 78.4, screening length: 5.74355 Bohr) occupying 0.701899 of unit cell:	Completed after 2 iterations at t[s]:  12057.84
	Linear fluid (dielectric constant: 78.4, screening length: 5.74355 Bohr) occupying 0.701901 of unit cell:	Completed after 0 iterations at t[s]:  12106.52
ElecMinimize: 	Step increased F by 2.428897e-08, reducing alpha to 1.021535e-02.
	Linear fluid (dielectric constant: 78.4, screening length: 5.74355 Bohr) occupying 0.701901 of unit cell:	Completed after 1 iterations at t[s]:  12210.92
ElecMinimize: 	Step increased F by 1.124542e-07, reducing alpha to 1.021535e-03.
	Linear fluid (dielectric constant: 78.4, screening length: 5.74355 Bohr) occupying 0.701902 of unit cell:	Completed after 0 iterations at t[s]:  12316.39
ElecMinimize: 	Step increased F by 1.099995e-07, reducing alpha to 1.021535e-04.
ElecMinimize: 	Step failed to reduce F after 3 attempts. Quitting step.
ElecMinimize: 	Undoing step.
	Linear fluid (dielectric constant: 78.4, screening length: 5.74355 Bohr) occupying 0.701902 of unit cell:	Completed after 0 iterations at t[s]:  12420.36
ElecMinimize: 	Step failed: resetting search direction.
	FillingsUpdate:  mu: -0.163960760  nElectrons: 704.000000  magneticMoment: [ Abs: 0.00001  Tot: +0.00000 ]
	SubspaceRotationAdjust: set factor to 0.245
ElecMinimize: Iter:   8  F: -1905.998113889818342  |grad|_K:  2.348e-08  alpha:  1.022e-04
	Linear fluid (dielectric constant: 78.4, screening length: 5.74355 Bohr) occupying 0.701901 of unit cell:	Completed after 0 iterations at t[s]:  12539.81
	Linear fluid (dielectric constant: 78.4, screening length: 5.74355 Bohr) occupying 0.701901 of unit cell:	Completed after 0 iterations at t[s]:  12587.57
	FillingsUpdate:  mu: -0.163952951  nElectrons: 704.000000  magneticMoment: [ Abs: 0.00000  Tot: +0.00000 ]
	SubspaceRotationAdjust: set factor to 0.329
ElecMinimize: Iter:   9  F: -1905.998114028074497  |grad|_K:  1.238e-08  alpha:  4.194e-01  linmin: -6.020e-04  t[s]:  12653.98
	Linear fluid (dielectric constant: 78.4, screening length: 5.74355 Bohr) occupying 0.701901 of unit cell:	Completed after 2 iterations at t[s]:  12707.83
	Linear fluid (dielectric constant: 78.4, screening length: 5.74355 Bohr) occupying 0.701901 of unit cell:	Completed after 0 iterations at t[s]:  12756.22
ElecMinimize: 	Step increased F by 9.883843e-08, reducing alpha to 8.804204e-03.
	Linear fluid (dielectric constant: 78.4, screening length: 5.74355 Bohr) occupying 0.701901 of unit cell:	Completed after 0 iterations at t[s]:  12860.95
ElecMinimize: 	Step increased F by 9.260884e-08, reducing alpha to 8.804204e-04.
	Linear fluid (dielectric constant: 78.4, screening length: 5.74355 Bohr) occupying 0.701901 of unit cell:	Completed after 0 iterations at t[s]:  12965.89
ElecMinimize: 	Step increased F by 9.209043e-08, reducing alpha to 8.804204e-05.
ElecMinimize: 	Step failed to reduce F after 3 attempts. Quitting step.
ElecMinimize: 	Undoing step.
	Linear fluid (dielectric constant: 78.4, screening length: 5.74355 Bohr) occupying 0.701901 of unit cell:	Completed after 0 iterations at t[s]:  13070.45
ElecMinimize: 	Step failed: resetting search direction.
	FillingsUpdate:  mu: -0.163901122  nElectrons: 704.000000  magneticMoment: [ Abs: 0.00000  Tot: +0.00000 ]
	SubspaceRotationAdjust: set factor to 0.238
ElecMinimize: Iter:  10  F: -1905.998113935984293  |grad|_K:  2.226e-08  alpha:  8.804e-05
	Linear fluid (dielectric constant: 78.4, screening length: 5.74355 Bohr) occupying 0.701900 of unit cell:	Completed after 1 iterations at t[s]:  13189.65
	Linear fluid (dielectric constant: 78.4, screening length: 5.74355 Bohr) occupying 0.701900 of unit cell:	Completed after 0 iterations at t[s]:  13237.93
	FillingsUpdate:  mu: -0.163907535  nElectrons: 704.000000  magneticMoment: [ Abs: 0.00000  Tot: +0.00000 ]
	SubspaceRotationAdjust: set factor to 0.237
ElecMinimize: Iter:  11  F: -1905.998114042532961  |grad|_K:  9.185e-09  alpha:  4.044e-01  linmin: -8.622e-04  t[s]:  13304.15
	Linear fluid (dielectric constant: 78.4, screening length: 5.74355 Bohr) occupying 0.701900 of unit cell:	Completed after 0 iterations at t[s]:  13357.41
	Linear fluid (dielectric constant: 78.4, screening length: 5.74355 Bohr) occupying 0.701900 of unit cell:	Completed after 0 iterations at t[s]:  13405.20
	FillingsUpdate:  mu: -0.163915480  nElectrons: 704.000000  magneticMoment: [ Abs: 0.00000  Tot: +0.00000 ]
	SubspaceRotationAdjust: set factor to 0.229
ElecMinimize: Iter:  12  F: -1905.998114042617772  |grad|_K:  7.081e-09  alpha:  2.666e-01  linmin: -5.580e-04  t[s]:  13471.50
	Linear fluid (dielectric constant: 78.4, screening length: 5.74355 Bohr) occupying 0.701900 of unit cell:	Completed after 0 iterations at t[s]:  13524.80
ElecMinimize: 	Predicted alpha/alphaT>3.000000, increasing alphaT to 7.997755e-01.
	Linear fluid (dielectric constant: 78.4, screening length: 5.74355 Bohr) occupying 0.701899 of unit cell:	Completed after 1 iterations at t[s]:  13572.01
	Linear fluid (dielectric constant: 78.4, screening length: 5.74355 Bohr) occupying 0.701900 of unit cell:	Completed after 0 iterations at t[s]:  13621.45
ElecMinimize: 	Step increased F by 4.472508e-08, reducing alpha to 1.261658e-02.
	Linear fluid (dielectric constant: 78.4, screening length: 5.74355 Bohr) occupying 0.701900 of unit cell:	Completed after 0 iterations at t[s]:  13726.54
ElecMinimize: 	Step increased F by 4.665571e-08, reducing alpha to 1.261658e-03.
	Linear fluid (dielectric constant: 78.4, screening length: 5.74355 Bohr) occupying 0.701900 of unit cell:	Completed after 0 iterations at t[s]:  13831.41
ElecMinimize: 	Step increased F by 4.473759e-08, reducing alpha to 1.261658e-04.
ElecMinimize: 	Step failed to reduce F after 3 attempts. Quitting step.
ElecMinimize: 	Undoing step.
	Linear fluid (dielectric constant: 78.4, screening length: 5.74355 Bohr) occupying 0.701900 of unit cell:	Completed after 0 iterations at t[s]:  13935.26
ElecMinimize: 	Step failed: resetting search direction.
	FillingsUpdate:  mu: -0.163985971  nElectrons: 704.000000  magneticMoment: [ Abs: 0.00000  Tot: +0.00000 ]
	SubspaceRotationAdjust: set factor to 0.161
	SubspaceRotationAdjust: resetting CG because factor has changed by 0.122929
	Linear fluid (dielectric constant: 78.4, screening length: 5.74355 Bohr) occupying 0.701900 of unit cell:	Completed after 0 iterations at t[s]:  14022.02
ElecMinimize: 	State modified externally: resetting search direction.
ElecMinimize: Iter:  13  F: -1905.998113997958853  |grad|_K:  2.093e-08  alpha:  1.262e-04
	Linear fluid (dielectric constant: 78.4, screening length: 5.74355 Bohr) occupying 0.701900 of unit cell:	Completed after 0 iterations at t[s]:  14140.74
ElecMinimize: 	Predicted alpha/alphaT>3.000000, increasing alphaT to 7.997755e-01.
	Linear fluid (dielectric constant: 78.4, screening length: 5.74355 Bohr) occupying 0.701900 of unit cell:	Completed after 2 iterations at t[s]:  14188.28
	Linear fluid (dielectric constant: 78.4, screening length: 5.74355 Bohr) occupying 0.701900 of unit cell:	Completed after 0 iterations at t[s]:  14237.60
	FillingsUpdate:  mu: -0.163924930  nElectrons: 704.000000  magneticMoment: [ Abs: 0.00000  Tot: +0.00000 ]
	SubspaceRotationAdjust: set factor to 0.177
ElecMinimize: Iter:  14  F: -1905.998114048598836  |grad|_K:  1.115e-08  alpha:  3.646e-01  linmin:  1.204e-03  t[s]:  14304.34
	Linear fluid (dielectric constant: 78.4, screening length: 5.74355 Bohr) occupying 0.701900 of unit cell:	Completed after 0 iterations at t[s]:  14357.47
ElecMinimize: 	Predicted alpha/alphaT>3.000000, increasing alphaT to 1.093690e+00.
	Linear fluid (dielectric constant: 78.4, screening length: 5.74355 Bohr) occupying 0.701899 of unit cell:	Completed after 0 iterations at t[s]:  14404.98
	Linear fluid (dielectric constant: 78.4, screening length: 5.74355 Bohr) occupying 0.701899 of unit cell:	Completed after 0 iterations at t[s]:  14452.89
	FillingsUpdate:  mu: -0.163924834  nElectrons: 704.000000  magneticMoment: [ Abs: 0.00000  Tot: +0.00000 ]
	SubspaceRotationAdjust: set factor to 0.175
ElecMinimize: Iter:  15  F: -1905.998114123530286  |grad|_K:  1.008e-08  alpha:  1.892e+00  linmin:  2.695e-07  t[s]:  14519.25
	Linear fluid (dielectric constant: 78.4, screening length: 5.74355 Bohr) occupying 0.701898 of unit cell:	Completed after 2 iterations at t[s]:  14572.94
	Linear fluid (dielectric constant: 78.4, screening length: 5.74355 Bohr) occupying 0.701899 of unit cell:	Completed after 1 iterations at t[s]:  14622.37
ElecMinimize: 	Step increased F by 1.584424e-07, reducing alpha to 2.117028e-02.
	Linear fluid (dielectric constant: 78.4, screening length: 5.74355 Bohr) occupying 0.701899 of unit cell:	Completed after 0 iterations at t[s]:  14728.11
[...]
	Linear fluid (dielectric constant: 78.4, screening length: 5.74355 Bohr) occupying 0.700448 of unit cell:	Completed after 0 iterations at t[s]:  26864.10
	FillingsUpdate:  mu: -0.163727138  nElectrons: 704.000000  magneticMoment: [ Abs: 0.00003  Tot: +0.00000 ]
	SubspaceRotationAdjust: set factor to 0.359
ElecMinimize: Iter:   6  F: -1906.000767154234381  |grad|_K:  6.340e-08  alpha:  3.832e-01  linmin:  5.816e-04  t[s]:  26930.77
	Linear fluid (dielectric constant: 78.4, screening length: 5.74355 Bohr) occupying 0.700446 of unit cell:	Completed after 0 iterations at t[s]:  26984.42
	Linear fluid (dielectric constant: 78.4, screening length: 5.74355 Bohr) occupying 0.700447 of unit cell:	Completed after 0 iterations at t[s]:  27032.05
	FillingsUpdate:  mu: -0.163727661  nElectrons: 704.000000  magneticMoment: [ Abs: 0.00002  Tot: +0.00000 ]
	SubspaceRotationAdjust: set factor to 0.268
ElecMinimize: Iter:   7  F: -1906.000767403481632  |grad|_K:  5.334e-08  alpha:  2.305e-01  linmin: -3.584e-08  t[s]:  27098.45
	Linear fluid (dielectric constant: 78.4, screening length: 5.74355 Bohr) occupying 0.700446 of unit cell:	Completed after 2 iterations at t[s]:  27151.97
	Linear fluid (dielectric constant: 78.4, screening length: 5.74355 Bohr) occupying 0.700447 of unit cell:	Completed after 0 iterations at t[s]:  27200.90
ElecMinimize: 	Step increased F by 5.477068e-08, reducing alpha to 9.271738e-03.
	Linear fluid (dielectric constant: 78.4, screening length: 5.74355 Bohr) occupying 0.700447 of unit cell:	Completed after 0 iterations at t[s]:  27306.10
ElecMinimize: 	Step increased F by 3.464538e-08, reducing alpha to 9.271738e-04.
	Linear fluid (dielectric constant: 78.4, screening length: 5.74355 Bohr) occupying 0.700447 of unit cell:	Completed after 0 iterations at t[s]:  27411.04
ElecMinimize: 	Step increased F by 3.483569e-08, reducing alpha to 9.271738e-05.
ElecMinimize: 	Step failed to reduce F after 3 attempts. Quitting step.
ElecMinimize: 	Undoing step.
	Linear fluid (dielectric constant: 78.4, screening length: 5.74355 Bohr) occupying 0.700447 of unit cell:	Completed after 0 iterations at t[s]:  27515.92
ElecMinimize: 	Step failed: resetting search direction.
	FillingsUpdate:  mu: -0.163816295  nElectrons: 704.000000  magneticMoment: [ Abs: 0.00002  Tot: +0.00000 ]
	SubspaceRotationAdjust: set factor to 0.221
ElecMinimize: Iter:   8  F: -1906.000767368605693  |grad|_K:  2.311e-08  alpha:  9.272e-05
	Linear fluid (dielectric constant: 78.4, screening length: 5.74355 Bohr) occupying 0.700447 of unit cell:	Completed after 0 iterations at t[s]:  27634.85
ElecMinimize: 	Predicted alpha/alphaT>3.000000, increasing alphaT to 6.914939e-01.
	Linear fluid (dielectric constant: 78.4, screening length: 5.74355 Bohr) occupying 0.700448 of unit cell:	Completed after 1 iterations at t[s]:  27682.38
	Linear fluid (dielectric constant: 78.4, screening length: 5.74355 Bohr) occupying 0.700447 of unit cell:	Completed after 0 iterations at t[s]:  27731.53
ElecMinimize: 	Step increased F by 2.709317e-08, reducing alpha to 3.355762e-02.
	Linear fluid (dielectric constant: 78.4, screening length: 5.74355 Bohr) occupying 0.700447 of unit cell:	Completed after 0 iterations at t[s]:  27836.48
ElecMinimize: 	Step increased F by 1.077096e-07, reducing alpha to 3.355762e-03.
	Linear fluid (dielectric constant: 78.4, screening length: 5.74355 Bohr) occupying 0.700447 of unit cell:	Completed after 0 iterations at t[s]:  27941.12
ElecMinimize: 	Step increased F by 1.192079e-07, reducing alpha to 3.355762e-04.
ElecMinimize: 	Step failed to reduce F after 3 attempts. Quitting step.
ElecMinimize: 	Undoing step.
	Linear fluid (dielectric constant: 78.4, screening length: 5.74355 Bohr) occupying 0.700447 of unit cell:	Completed after 0 iterations at t[s]:  28045.70
ElecMinimize: 	Step failed along negative gradient direction.
ElecMinimize: Probably at roundoff error limit. (Stopping)
Setting wave functions to eigenvectors of Hamiltonian

# Ionic positions in lattice coordinates:
ion Zr   0.125000000000000   0.000000000000000   0.597211559543416 1
ion Zr   0.000000000000000   0.125000000000000   0.402785097123251 1
ion Zr   0.375000000000000   0.000000000000000   0.597211559543416 1
ion Zr   0.250000000000000   0.125000000000000   0.402785097123251 1
ion Zr   0.625000000000000   0.000000000000000   0.597211559543416 1
ion Zr   0.500000000000000   0.125000000000000   0.402785097123251 1
ion Zr   0.875000000000000   0.000000000000000   0.597211559543416 1
ion Zr   0.750000000000000   0.125000000000000   0.402785097123251 1
ion Zr   0.125000000000000   0.250000000000000   0.597211559543416 1
ion Zr   0.000000000000000   0.375000000000000   0.402785097123251 1
ion Zr   0.375000000000000   0.250000000000000   0.597211559543416 1
ion Zr   0.250000000000000   0.375000000000000   0.402785097123251 1
ion Zr   0.625000000000000   0.250000000000000   0.597211559543416 1
ion Zr   0.500000000000000   0.375000000000000   0.402785097123251 1
ion Zr   0.875000000000000   0.250000000000000   0.597211559543416 1
ion Zr   0.750000000000000   0.375000000000000   0.402785097123251 1
ion Zr   0.125000000000000   0.500000000000000   0.597211559543416 1
ion Zr   0.000000000000000   0.625000000000000   0.402785097123251 1
ion Zr   0.375000000000000   0.500000000000000   0.597211559543416 1
ion Zr   0.250000000000000   0.625000000000000   0.402785097123251 1
ion Zr   0.625000000000000   0.500000000000000   0.597211559543416 1
ion Zr   0.500000000000000   0.625000000000000   0.402785097123251 1
ion Zr   0.875000000000000   0.500000000000000   0.597211559543416 1
ion Zr   0.750000000000000   0.625000000000000   0.402785097123251 1
ion Zr   0.125000000000000   0.750000000000000   0.597211559543416 1
ion Zr   0.000000000000000   0.875000000000000   0.402785097123251 1
ion Zr   0.375000000000000   0.750000000000000   0.597211559543416 1
ion Zr   0.250000000000000   0.875000000000000   0.402785097123251 1
ion Zr   0.625000000000000   0.750000000000000   0.597211559543416 1
ion Zr   0.500000000000000   0.875000000000000   0.402785097123251 1
ion Zr   0.875000000000000   0.750000000000000   0.597211559543416 1
ion Zr   0.750000000000000   0.875000000000000   0.402785097123251 1
ion Si   0.125000000000000   0.125000000000000   0.499998328333333 1
ion Si   0.000000000000000   0.000000000000000   0.499998328333333 1
ion Si   0.375000000000000   0.125000000000000   0.499998328333333 1
ion Si   0.250000000000000   0.000000000000000   0.499998328333333 1
ion Si   0.625000000000000   0.125000000000000   0.499998328333333 1
ion Si   0.500000000000000   0.000000000000000   0.499998328333333 1
ion Si   0.875000000000000   0.125000000000000   0.499998328333333 1
ion Si   0.750000000000000   0.000000000000000   0.499998328333333 1
ion Si   0.125000000000000   0.375000000000000   0.499998328333333 1
ion Si   0.000000000000000   0.250000000000000   0.499998328333333 1
ion Si   0.375000000000000   0.375000000000000   0.499998328333333 1
ion Si   0.250000000000000   0.250000000000000   0.499998328333333 1
ion Si   0.625000000000000   0.375000000000000   0.499998328333333 1
ion Si   0.500000000000000   0.250000000000000   0.499998328333333 1
ion Si   0.875000000000000   0.375000000000000   0.499998328333333 1
ion Si   0.750000000000000   0.250000000000000   0.499998328333333 1
ion Si   0.125000000000000   0.625000000000000   0.499998328333333 1
ion Si   0.000000000000000   0.500000000000000   0.499998328333333 1
ion Si   0.375000000000000   0.625000000000000   0.499998328333333 1
ion Si   0.250000000000000   0.500000000000000   0.499998328333333 1
ion Si   0.625000000000000   0.625000000000000   0.499998328333333 1
ion Si   0.500000000000000   0.500000000000000   0.499998328333333 1
ion Si   0.875000000000000   0.625000000000000   0.499998328333333 1
ion Si   0.750000000000000   0.500000000000000   0.499998328333333 1
ion Si   0.125000000000000   0.875000000000000   0.499998328333333 1
ion Si   0.000000000000000   0.750000000000000   0.499998328333333 1
ion Si   0.375000000000000   0.875000000000000   0.499998328333333 1
ion Si   0.250000000000000   0.750000000000000   0.499998328333333 1
ion Si   0.625000000000000   0.875000000000000   0.499998328333333 1
ion Si   0.500000000000000   0.750000000000000   0.499998328333333 1
ion Si   0.875000000000000   0.875000000000000   0.499998328333333 1
ion Si   0.750000000000000   0.750000000000000   0.499998328333333 1
ion Te   0.000000000000000   0.125000000000000   0.661695933571344 1
ion Te   0.125000000000000   0.000000000000000   0.338300723095323 1
ion Te   0.250000000000000   0.125000000000000   0.661695933571344 1
ion Te   0.375000000000000   0.000000000000000   0.338300723095323 1
ion Te   0.500000000000000   0.125000000000000   0.661695933571344 1
ion Te   0.625000000000000   0.000000000000000   0.338300723095323 1
ion Te   0.750000000000000   0.125000000000000   0.661695933571344 1
ion Te   0.875000000000000   0.000000000000000   0.338300723095323 1
ion Te   0.000000000000000   0.375000000000000   0.661695933571344 1
ion Te   0.125000000000000   0.250000000000000   0.338300723095323 1
ion Te   0.250000000000000   0.375000000000000   0.661695933571344 1
ion Te   0.375000000000000   0.250000000000000   0.338300723095323 1
ion Te   0.500000000000000   0.375000000000000   0.661695933571344 1
ion Te   0.625000000000000   0.250000000000000   0.338300723095323 1
ion Te   0.750000000000000   0.375000000000000   0.661695933571344 1
ion Te   0.875000000000000   0.250000000000000   0.338300723095323 1
ion Te   0.000000000000000   0.625000000000000   0.661695933571344 1
ion Te   0.125000000000000   0.500000000000000   0.338300723095323 1
ion Te   0.250000000000000   0.625000000000000   0.661695933571344 1
ion Te   0.375000000000000   0.500000000000000   0.338300723095323 1
ion Te   0.500000000000000   0.625000000000000   0.661695933571344 1
ion Te   0.625000000000000   0.500000000000000   0.338300723095323 1
ion Te   0.750000000000000   0.625000000000000   0.661695933571344 1
ion Te   0.875000000000000   0.500000000000000   0.338300723095323 1
ion Te   0.000000000000000   0.875000000000000   0.661695933571344 1
ion Te   0.125000000000000   0.750000000000000   0.338300723095323 1
ion Te   0.250000000000000   0.875000000000000   0.661695933571344 1
ion Te   0.375000000000000   0.750000000000000   0.338300723095323 1
ion Te   0.500000000000000   0.875000000000000   0.661695933571344 1
ion Te   0.625000000000000   0.750000000000000   0.338300723095323 1
ion Te   0.750000000000000   0.875000000000000   0.661695933571344 1
ion Te   0.875000000000000   0.750000000000000   0.338300723095323 1


# Forces in Lattice coordinates:
force Zr  -0.000000000000000  -0.000000000000000  -0.009936520301224 1
force Zr  -0.000000000000000   0.000000000000000   0.009936520301679 1
force Zr   0.000000000000000   0.000000000000000  -0.009936520301451 1
force Zr  -0.000000000000000   0.000000000000000   0.009936520301679 1
force Zr   0.000000000000000  -0.000000000000000  -0.009936520301451 1
force Zr  -0.000000000000000   0.000000000000000   0.009936520301451 1
force Zr   0.000000000000000   0.000000000000000  -0.009936520301452 1
force Zr  -0.000000000000000  -0.000000000000000   0.009936520301451 1
force Zr  -0.000000000000000   0.000000000000000  -0.009936520301224 1
force Zr   0.000000000000000   0.000000000000000   0.009936520301452 1
force Zr  -0.000000000000000  -0.000000000000000  -0.009936520301451 1
force Zr   0.000000000000000  -0.000000000000000   0.009936520301452 1
force Zr   0.000000000000000  -0.000000000000000  -0.009936520301452 1
force Zr  -0.000000000000000   0.000000000000000   0.009936520301451 1
force Zr   0.000000000000000  -0.000000000000000  -0.009936520301224 1
force Zr   0.000000000000000   0.000000000000000   0.009936520301452 1
force Zr  -0.000000000000000   0.000000000000000  -0.009936520301224 1
force Zr   0.000000000000000  -0.000000000000000   0.009936520301451 1
force Zr  -0.000000000000000   0.000000000000000  -0.009936520301451 1
force Zr   0.000000000000000  -0.000000000000000   0.009936520301679 1
force Zr  -0.000000000000000  -0.000000000000000  -0.009936520301224 1
force Zr   0.000000000000000  -0.000000000000000   0.009936520301679 1
force Zr  -0.000000000000000  -0.000000000000000  -0.009936520301451 1
force Zr  -0.000000000000000  -0.000000000000000   0.009936520301679 1
force Zr  -0.000000000000000   0.000000000000000  -0.009936520301679 1
force Zr  -0.000000000000000  -0.000000000000000   0.009936520301451 1
force Zr  -0.000000000000000   0.000000000000000  -0.009936520301224 1
force Zr   0.000000000000000  -0.000000000000000   0.009936520301679 1
force Zr   0.000000000000000   0.000000000000000  -0.009936520301452 1
force Zr  -0.000000000000000  -0.000000000000000   0.009936520301451 1
force Zr   0.000000000000000   0.000000000000000  -0.009936520301679 1
force Zr  -0.000000000000000  -0.000000000000000   0.009936520301452 1
force Si   0.000000000000000  -0.000000000000000   0.000000000000000 1
force Si   0.000000000000000  -0.000000000000000   0.000000000000000 1
force Si   0.000000000000000  -0.000000000000000  -0.000000000000000 1
force Si  -0.000000000000000   0.000000000000000   0.000000000000000 1
force Si   0.000000000000000  -0.000000000000000   0.000000000000000 1
force Si  -0.000000000000000  -0.000000000000000   0.000000000000000 1
force Si  -0.000000000000000  -0.000000000000000   0.000000000000000 1
force Si   0.000000000000000   0.000000000000000  -0.000000000000000 1
force Si   0.000000000000000  -0.000000000000000   0.000000000000000 1
force Si   0.000000000000000   0.000000000000000  -0.000000000000000 1
force Si  -0.000000000000000   0.000000000000000   0.000000000000000 1
force Si  -0.000000000000000   0.000000000000000  -0.000000000000000 1
force Si  -0.000000000000000   0.000000000000000  -0.000000000000000 1
force Si  -0.000000000000000   0.000000000000000  -0.000000000000000 1
force Si   0.000000000000000  -0.000000000000000   0.000000000000000 1
force Si   0.000000000000000   0.000000000000000  -0.000000000000000 1
force Si   0.000000000000000   0.000000000000000  -0.000000000000000 1
force Si   0.000000000000000   0.000000000000000  -0.000000000000000 1
force Si   0.000000000000000   0.000000000000000  -0.000000000000000 1
force Si  -0.000000000000000   0.000000000000000   0.000000000000000 1
force Si  -0.000000000000000   0.000000000000000  -0.000000000000000 1
force Si   0.000000000000000  -0.000000000000000   0.000000000000000 1
force Si   0.000000000000000   0.000000000000000  -0.000000000000000 1
force Si   0.000000000000000  -0.000000000000000  -0.000000000000000 1
force Si   0.000000000000000   0.000000000000000   0.000000000000000 1
force Si   0.000000000000000   0.000000000000000   0.000000000000000 1
force Si   0.000000000000000   0.000000000000000   0.000000000000000 1
force Si  -0.000000000000000  -0.000000000000000  -0.000000000000000 1
force Si  -0.000000000000000   0.000000000000000   0.000000000000000 1
force Si  -0.000000000000000  -0.000000000000000   0.000000000000000 1
force Si  -0.000000000000000  -0.000000000000000  -0.000000000000000 1
force Si   0.000000000000000   0.000000000000000   0.000000000000000 1
force Te   0.000000000000000   0.000000000000000  -0.001951211083211 1
force Te   0.000000000000000  -0.000000000000000   0.001951211083212 1
force Te  -0.000000000000000   0.000000000000000  -0.001951211083098 1
force Te   0.000000000000000   0.000000000000000   0.001951211083212 1
force Te  -0.000000000000000   0.000000000000000  -0.001951211083212 1
force Te   0.000000000000000  -0.000000000000000   0.001951211083212 1
force Te  -0.000000000000000   0.000000000000000  -0.001951211083098 1
force Te   0.000000000000000   0.000000000000000   0.001951211083212 1
force Te  -0.000000000000000  -0.000000000000000  -0.001951211083098 1
force Te   0.000000000000000  -0.000000000000000   0.001951211083212 1
force Te  -0.000000000000000  -0.000000000000000  -0.001951211083212 1
force Te   0.000000000000000   0.000000000000000   0.001951211083098 1
force Te   0.000000000000000   0.000000000000000  -0.001951211083212 1
force Te  -0.000000000000000   0.000000000000000   0.001951211083326 1
force Te  -0.000000000000000   0.000000000000000  -0.001951211082984 1
force Te   0.000000000000000   0.000000000000000   0.001951211083326 1
force Te  -0.000000000000000  -0.000000000000000  -0.001951211083098 1
force Te  -0.000000000000000  -0.000000000000000   0.001951211083212 1
force Te   0.000000000000000  -0.000000000000000  -0.001951211082984 1
force Te   0.000000000000000  -0.000000000000000   0.001951211083212 1
force Te  -0.000000000000000  -0.000000000000000  -0.001951211083212 1
force Te   0.000000000000000   0.000000000000000   0.001951211083212 1
force Te  -0.000000000000000  -0.000000000000000  -0.001951211083212 1
force Te  -0.000000000000000  -0.000000000000000   0.001951211083212 1
force Te   0.000000000000000   0.000000000000000  -0.001951211083098 1
force Te   0.000000000000000  -0.000000000000000   0.001951211083212 1
force Te  -0.000000000000000   0.000000000000000  -0.001951211082984 1
force Te  -0.000000000000000  -0.000000000000000   0.001951211083326 1
force Te  -0.000000000000000  -0.000000000000000  -0.001951211083212 1
force Te   0.000000000000000  -0.000000000000000   0.001951211083212 1
force Te   0.000000000000000   0.000000000000000  -0.001951211083098 1
force Te   0.000000000000000  -0.000000000000000   0.001951211083098 1

# Energy components:
   A_diel =        0.0098603450528819
   Eewald =    16942.9351202117104549
       EH =    18515.4349417798621289
     Eloc =   -37707.2878846385938232
      Enl =       98.8320338201417883
      Exc =     -586.5085278691942676
 Exc_core =      260.8325175802717695
       KE =      569.8307129731481382
-------------------------------------
     Etot =    -1905.9212257976034834
       TS =        0.0795414515928953
-------------------------------------
        F =    -1906.0007672491963149

IonicMinimize: Iter:   4  F: -1906.000767249196315  |grad|_K:  8.097e-05  alpha:  1.000e+00  linmin: -9.674e-01  t[s]:  28155.09
IonicMinimize: Converged (|grad|_K<1.000000e-04).

#--- Lowdin population analysis ---
# oxidation-state Zr -0.680 -0.680 -0.680 -0.680 -0.680 -0.680 -0.680 -0.680 -0.680 -0.680 -0.680 -0.680 -0.680 -0.680 -0.680 -0.680 -0.680 -0.680 -0.680 -0.680 -0.680 -0.680 -0.680 -0.680 -0.680 -0.680 -0.680 -0.680 -0.680 -0.680 -0.680 -0.680
# magnetic-moments Zr +0.000 +0.000 +0.000 +0.000 +0.000 +0.000 +0.000 +0.000 +0.000 +0.000 +0.000 +0.000 +0.000 +0.000 +0.000 +0.000 +0.000 +0.000 +0.000 +0.000 +0.000 +0.000 +0.000 +0.000 +0.000 +0.000 +0.000 +0.000 +0.000 +0.000 +0.000 +0.000
# oxidation-state Si +0.324 +0.324 +0.324 +0.324 +0.324 +0.324 +0.324 +0.324 +0.324 +0.324 +0.324 +0.324 +0.324 +0.324 +0.324 +0.324 +0.324 +0.324 +0.324 +0.324 +0.324 +0.324 +0.324 +0.324 +0.324 +0.324 +0.324 +0.324 +0.324 +0.324 +0.324 +0.324
# magnetic-moments Si +0.000 +0.000 +0.000 +0.000 +0.000 +0.000 +0.000 +0.000 +0.000 +0.000 +0.000 +0.000 +0.000 +0.000 +0.000 +0.000 +0.000 +0.000 +0.000 +0.000 +0.000 +0.000 +0.000 +0.000 +0.000 +0.000 +0.000 +0.000 +0.000 +0.000 +0.000 +0.000
# oxidation-state Te +0.435 +0.435 +0.435 +0.435 +0.435 +0.435 +0.435 +0.435 +0.435 +0.435 +0.435 +0.435 +0.435 +0.435 +0.435 +0.435 +0.435 +0.435 +0.435 +0.435 +0.435 +0.435 +0.435 +0.435 +0.435 +0.435 +0.435 +0.435 +0.435 +0.435 +0.435 +0.435
# magnetic-moments Te +0.000 +0.000 +0.000 +0.000 +0.000 +0.000 +0.000 +0.000 +0.000 +0.000 +0.000 +0.000 +0.000 +0.000 +0.000 +0.000 +0.000 +0.000 +0.000 +0.000 +0.000 +0.000 +0.000 +0.000 +0.000 +0.000 +0.000 +0.000 +0.000 +0.000 +0.000 +0.000


Dumping 'NbTe2.fillings' ... done
Dumping 'NbTe2.wfns' ... done
Dumping 'NbTe2.fluidState' ... done
Dumping 'NbTe2.ionpos' ... done
Dumping 'NbTe2.eigenvals' ... done
End date and time: Sun Feb 14 14:12:07 2021  (Duration: 0-7:49:48.51)
Done!
