
*************** JDFTx 1.5.0  ***************

Start date and time: Wed Dec 30 16:32:18 2020
Executable jdftx_gpu with command-line: -i Charged.in -o Charged.out
Running on hosts (process indices):  amax (0-4)
Divided in process groups (process indices):  0 (0)  1 (1)  2 (2)  3 (3)  4 (4)
gpuInit: Found compatible cuda device 0 'Tesla K80'
gpuInit: Found compatible cuda device 1 'Tesla K80'
gpuInit: Found compatible cuda device 2 'Tesla K80'
gpuInit: Found compatible cuda device 3 'Tesla K80'
gpuInit: Found compatible cuda device 4 'Tesla K80'
gpuInit: Selected device 0
Resource initialization completed at t[s]:      2.98
Run totals: 5 processes, 24 threads, 5 GPUs


Input parsed successfully to the following command list (including defaults):

basis kpoint-dependent
cache-projectors no
coords-type Lattice
core-overlap-check none
coulomb-interaction Slab 001
coulomb-truncation-embed 0.5 0.5 0.5
davidson-band-ratio 1.1
dump End State
dump-name NbTe2.$VAR
elec-cutoff 20
elec-eigen-algo Davidson
elec-ex-corr gga-PBE
elec-initial-magnetization 10.000000 no
elec-smearing Gauss 0.0073499
electronic-minimize  \
	dirUpdateScheme      FletcherReeves \
	linminMethod         DirUpdateRecommended \
	nIterations          200 \
	history              15 \
	knormThreshold       0 \
	energyDiffThreshold  1e-08 \
	nEnergyDiff          2 \
	alphaTstart          1 \
	alphaTmin            1e-10 \
	updateTestStepSize   yes \
	alphaTreduceFactor   0.1 \
	alphaTincreaseFactor 3 \
	nAlphaAdjustMax      3 \
	wolfeEnergy          0.0001 \
	wolfeGradient        0.9 \
	fdTest               no
exchange-regularization WignerSeitzTruncated
fluid LinearPCM 298.000000 1.013250
fluid-anion F- 1 MeanFieldLJ \
	epsBulk 1 \
	pMol 0 \
	epsInf 1 \
	Pvap 0 \
	sigmaBulk 0 \
	Rvdw 2.24877 \
	Res 0 \
	tauNuc 343133
fluid-cation Na+ 1 MeanFieldLJ \
	epsBulk 1 \
	pMol 0 \
	epsInf 1 \
	Pvap 0 \
	sigmaBulk 0 \
	Rvdw 2.19208 \
	Res 0 \
	tauNuc 343133
fluid-ex-corr lda-TF lda-PZ
fluid-gummel-loop 10 1.000000e-05
fluid-minimize  \
	dirUpdateScheme      PolakRibiere \
	linminMethod         DirUpdateRecommended \
	nIterations          400 \
	history              15 \
	knormThreshold       1e-11 \
	energyDiffThreshold  0 \
	nEnergyDiff          2 \
	alphaTstart          1 \
	alphaTmin            1e-10 \
	updateTestStepSize   yes \
	alphaTreduceFactor   0.1 \
	alphaTincreaseFactor 3 \
	nAlphaAdjustMax      6 \
	wolfeEnergy          0.0001 \
	wolfeGradient        0.9 \
	fdTest               no
fluid-solvent H2O 55.338 ScalarEOS \
	epsBulk 78.4 \
	pMol 0.92466 \
	epsInf 1.77 \
	Pvap 1.06736e-10 \
	sigmaBulk 4.62e-05 \
	Rvdw 2.61727 \
	Res 1.42 \
	tauNuc 343133 \
	poleEl 15 7 1
forces-output-coords Positions
initial-state NbTe2.$VAR
ion C   0.166666531632309   0.083333455367686   0.566574793810117 1
ion C   0.083333474604824   0.166666526395179   0.433457079445249 1
ion C   0.416666550632307   0.083333455367686   0.566574793810117 1
ion C   0.333333483604822   0.166666526395179   0.433457079445249 1
ion C   0.666666550632307   0.083333455367686   0.566574793810117 1
ion C   0.583333444604822   0.166666526395179   0.433457079445249 1
ion C   0.916666550632307   0.083333455367686   0.566574793810117 1
ion C   0.833333522604821   0.166666526395179   0.433457079445249 1
ion C   0.166666536632313   0.333333465367687   0.566574793810117 1
ion C   0.083333478604825   0.416666536395173   0.433457079445249 1
ion C   0.416666536632313   0.333333465367687   0.566574793810117 1
ion C   0.333333488604825   0.416666536395173   0.433457079445249 1
ion C   0.666666536632313   0.333333465367687   0.566574793810117 1
ion C   0.583333430604821   0.416666536395173   0.433457079445249 1
ion C   0.916666575632313   0.333333465367687   0.566574793810117 1
ion C   0.833333469604820   0.416666536395173   0.433457079445249 1
ion C   0.166666543632310   0.583333440367689   0.566574793810117 1
ion C   0.083333487604822   0.666666534395173   0.433457079445249 1
ion C   0.416666543632310   0.583333440367689   0.566574793810117 1
ion C   0.333333487604822   0.666666534395173   0.433457079445249 1
ion C   0.666666543632310   0.583333440367689   0.566574793810117 1
ion C   0.583333448604822   0.666666534395173   0.433457079445249 1
ion C   0.916666582632310   0.583333440367689   0.566574793810117 1
ion C   0.833333487604822   0.666666534395173   0.433457079445249 1
ion C   0.166666500632310   0.833333394367692   0.566574793810117 1
ion C   0.083333489604822   0.916666578395177   0.433457079445249 1
ion C   0.416666500632310   0.833333394367692   0.566574793810117 1
ion C   0.333333489604822   0.916666578395177   0.433457079445249 1
ion C   0.666666500632310   0.833333394367692   0.566574793810117 1
ion C   0.583333451604826   0.916666578395177   0.433457079445249 1
ion C   0.916666539632310   0.833333394367692   0.566574793810117 1
ion C   0.833333489604822   0.916666578395177   0.433457079445249 1
ion Ti  -0.000000006430495   0.000000006430495   0.500011379352478 1
ion Ti   0.083332914315182   0.166667086684822   0.618894755470309 1
ion Ti   0.166667065878178   0.083332921121817   0.381131957921845 1
ion Ti   0.249999993569505   0.000000006430495   0.500011379352478 1
ion Ti   0.333332923315179   0.166667086684822   0.618894755470309 1
ion Ti   0.416667084878176   0.083332921121817   0.381131957921845 1
ion Ti   0.499999993569505   0.000000006430495   0.500011379352478 1
ion Ti   0.583332884315179   0.166667086684822   0.618894755470309 1
ion Ti   0.666667084878176   0.083332921121817   0.381131957921845 1
ion Ti   0.750000032569505   0.000000006430495   0.500011379352478 1
ion Ti   0.833332962315179   0.166667086684822   0.618894755470309 1
ion Ti   0.916667084878176   0.083332921121817   0.381131957921845 1
ion Ti   0.999999992569509   0.250000004430495   0.500011379352478 1
ion Ti   0.083332918315182   0.416667096684816   0.618894755470309 1
ion Ti   0.166667070878182   0.333332931121818   0.381131957921845 1
ion Ti   0.249999992569509   0.250000004430495   0.500011379352478 1
ion Ti   0.333332928315183   0.416667096684816   0.618894755470309 1
ion Ti   0.416667070878182   0.333332931121818   0.381131957921845 1
ion Ti   0.500000012569503   0.250000004430495   0.500011379352478 1
ion Ti   0.583332870315178   0.416667096684816   0.618894755470309 1
ion Ti   0.666667070878182   0.333332931121818   0.381131957921845 1
ion Ti   0.750000051569503   0.250000004430495   0.500011379352478 1
ion Ti   0.833332909315178   0.416667096684816   0.618894755470309 1
ion Ti   0.916667109878182   0.333332931121818   0.381131957921845 1
ion Ti   0.999999991569505   0.500000003430498   0.500011379352478 1
ion Ti   0.083332927315179   0.666667094684816   0.618894755470309 1
ion Ti   0.166667077878179   0.583332906121820   0.381131957921845 1
ion Ti   0.249999991569505   0.500000003430498   0.500011379352478 1
ion Ti   0.333332927315179   0.666667094684816   0.618894755470309 1
ion Ti   0.416667077878179   0.583332906121820   0.381131957921845 1
ion Ti   0.499999991569505   0.500000003430498   0.500011379352478 1
ion Ti   0.583332888315179   0.666667094684816   0.618894755470309 1
ion Ti   0.666667077878179   0.583332906121820   0.381131957921845 1
ion Ti   0.750000030569505   0.500000003430498   0.500011379352478 1
ion Ti   0.833332927315179   0.666667094684816   0.618894755470309 1
ion Ti   0.916667116878179   0.583332906121820   0.381131957921845 1
ion Ti   0.999999971569503   0.750000001430498   0.500011379352478 1
ion Ti   0.083332929315179   0.916667138684819   0.618894755470309 1
ion Ti   0.166667034878179   0.833332860121823   0.381131957921845 1
ion Ti   0.249999971569503   0.750000001430498   0.500011379352478 1
ion Ti   0.333332929315179   0.916667138684819   0.618894755470309 1
ion Ti   0.416667034878179   0.833332860121823   0.381131957921845 1
ion Ti   0.499999971569503   0.750000001430498   0.500011379352478 1
ion Ti   0.583332891315183   0.916667138684819   0.618894755470309 1
ion Ti   0.666667034878179   0.833332860121823   0.381131957921845 1
ion Ti   0.750000010569503   0.750000001430498   0.500011379352478 1
ion Ti   0.833332929315179   0.916667138684819   0.618894755470309 1
ion Ti   0.916667073878179   0.833332860121823   0.381131957921845 1
ion-species GBRV/$ID_pbe.uspp
ion-width Ecut
ionic-minimize  \
	dirUpdateScheme      L-BFGS \
	linminMethod         DirUpdateRecommended \
	nIterations          500 \
	history              15 \
	knormThreshold       0.0001 \
	energyDiffThreshold  1e-06 \
	nEnergyDiff          2 \
	alphaTstart          1 \
	alphaTmin            1e-10 \
	updateTestStepSize   yes \
	alphaTreduceFactor   0.1 \
	alphaTincreaseFactor 3 \
	nAlphaAdjustMax      3 \
	wolfeEnergy          0.0001 \
	wolfeGradient        0.9 \
	fdTest               no
kpoint   0.000000000000   0.000000000000   0.000000000000  1.00000000000000
kpoint-folding 3 3 1 
latt-move-scale 1 1 1
latt-scale 1.88973 1.88973 1.88973 
lattice Triclinic 12.239 12.239 19.6623 90 90 120
lattice-minimize  \
	dirUpdateScheme      L-BFGS \
	linminMethod         DirUpdateRecommended \
	nIterations          0 \
	history              15 \
	knormThreshold       0 \
	energyDiffThreshold  1e-06 \
	nEnergyDiff          2 \
	alphaTstart          1 \
	alphaTmin            1e-10 \
	updateTestStepSize   yes \
	alphaTreduceFactor   0.1 \
	alphaTincreaseFactor 3 \
	nAlphaAdjustMax      3 \
	wolfeEnergy          0.0001 \
	wolfeGradient        0.9 \
	fdTest               no
lcao-params -1 1e-06 0.0073499
pcm-variant CANDLE
spintype z-spin
subspace-rotation-factor 1 yes
symmetries automatic
symmetry-threshold 0.0001
target-mu -0.171252 no




---------- Setting up symmetries ----------

Found 24 point-group symmetries of the bravais lattice
Found 192 space-group symmetries with basis
Applied RMS atom displacement 6.57349e-05 bohrs to make symmetries exact.

---------- Initializing the Grid ----------
R = 
[    23.1284   -11.5642          0  ]
[          0    20.0297          0  ]
[          0          0    37.1564  ]
unit cell volume = 17212.9
G =
[   0.271666   0.156846         -0  ]
[          0   0.313693          0  ]
[          0         -0   0.169101  ]
Minimum fftbox size, Smin = [  96  96  152  ]
Chosen fftbox size, S = [  96  96  160  ]

---------- Exchange Correlation functional ----------
Initalized PBE GGA exchange.
Initalized PBE GGA correlation.

---------- Setting up pseudopotentials ----------
Width of ionic core gaussian charges (only for fluid interactions / plotting) set to 0.397384

Reading pseudopotential file '/home/guoxy/vasp/jdftx-1.5.0/build/pseudopotentials/GBRV/c_pbe.uspp':
  Title: C.  Created by USPP 7.3.6 on 3-2-2014
  Reference state energy: -5.406344.  4 valence electrons in orbitals:
    |200>  occupation: 2  eigenvalue: -0.504890
    |210>  occupation: 2  eigenvalue: -0.194356
  lMax: 1  lLocal: 2  QijEcut: 5
  4 projectors sampled on a log grid with 503 points:
    l: 0  eig: -0.504890  rCut: 1.3
    l: 0  eig: 0.000000  rCut: 1.3
    l: 1  eig: -0.194357  rCut: 1.3
    l: 1  eig: 0.000000  rCut: 1.3
  Partial core density with radius 1.1
  Transforming core density to a uniform radial grid of dG=0.02 with 1474 points.
  Transforming local potential to a uniform radial grid of dG=0.02 with 1474 points.
  Transforming nonlocal projectors to a uniform radial grid of dG=0.02 with 432 points.
  Transforming density augmentations to a uniform radial grid of dG=0.02 with 1474 points.
  Transforming atomic orbitals to a uniform radial grid of dG=0.02 with 432 points.
  Core radius for overlap checks: 1.30 bohrs.

Reading pseudopotential file '/home/guoxy/vasp/jdftx-1.5.0/build/pseudopotentials/GBRV/ti_pbe.uspp':
  Title: Ti.  Created by USPP 7.3.6 on 31-3-15
  Reference state energy: -59.020943.  12 valence electrons in orbitals:
    |300>  occupation: 2  eigenvalue: -2.777623
    |310>  occupation: 6  eigenvalue: -1.894596
    |400>  occupation: 2  eigenvalue: -0.438610
    |320>  occupation: 1  eigenvalue: -0.583119
  lMax: 2  lLocal: 3  QijEcut: 6
  6 projectors sampled on a log grid with 597 points:
    l: 0  eig: -2.777624  rCut: 1.8
    l: 0  eig: -0.438611  rCut: 1.8
    l: 1  eig: -1.894596  rCut: 1.8
    l: 1  eig: 0.500000  rCut: 1.8
    l: 2  eig: -0.583118  rCut: 1.8
    l: 2  eig: 0.150000  rCut: 1.8
  Partial core density with radius 0.8
  Transforming core density to a uniform radial grid of dG=0.02 with 1474 points.
  Transforming local potential to a uniform radial grid of dG=0.02 with 1474 points.
  Transforming nonlocal projectors to a uniform radial grid of dG=0.02 with 432 points.
  Transforming density augmentations to a uniform radial grid of dG=0.02 with 1474 points.
  Transforming atomic orbitals to a uniform radial grid of dG=0.02 with 432 points.
  Core radius for overlap checks: 1.80 bohrs.

Initialized 2 species with 80 total atoms.

Folded 1 k-points by 3x3x1 to 9 k-points.
Coulomb truncation embedding center is not invariant under symmetry matrix:
[  -1   0   0  ]
[  -1   1   0  ]
[   0   0  -1  ]
[  -0.5  0.25  2.79864e-05  ]
Coulomb truncation embedding center is not invariant under symmetries.
End date and time: Wed Dec 30 16:32:22 2020  (Duration: 0-0:00:04.27)
Failed.

*************** JDFTx 1.5.0  ***************

Start date and time: Mon Jan  4 00:09:13 2021
Executable jdftx_gpu with command-line: -i Charged.in -o Charged.out
Running on hosts (process indices):  amax (0-4)
Divided in process groups (process indices):  0 (0)  1 (1)  2 (2)  3 (3)  4 (4)
gpuInit: Found compatible cuda device 0 'Tesla K80'
gpuInit: Found compatible cuda device 1 'Tesla K80'
gpuInit: Found compatible cuda device 2 'Tesla K80'
gpuInit: Found compatible cuda device 3 'Tesla K80'
gpuInit: Found compatible cuda device 4 'Tesla K80'
gpuInit: Selected device 0
Resource initialization completed at t[s]:      2.43
Run totals: 5 processes, 24 threads, 5 GPUs


Input parsed successfully to the following command list (including defaults):

basis kpoint-dependent
cache-projectors no
coords-type Lattice
core-overlap-check none
coulomb-interaction Slab 001
coulomb-truncation-embed 0.5 0.5 0.5
davidson-band-ratio 1.1
dump End State
dump-name NbTe2.$VAR
elec-cutoff 20
elec-eigen-algo Davidson
elec-ex-corr gga-PBE
elec-initial-magnetization 10.000000 no
elec-smearing Gauss 0.0073499
electronic-minimize  \
	dirUpdateScheme      FletcherReeves \
	linminMethod         DirUpdateRecommended \
	nIterations          200 \
	history              15 \
	knormThreshold       0 \
	energyDiffThreshold  1e-08 \
	nEnergyDiff          2 \
	alphaTstart          1 \
	alphaTmin            1e-10 \
	updateTestStepSize   yes \
	alphaTreduceFactor   0.1 \
	alphaTincreaseFactor 3 \
	nAlphaAdjustMax      3 \
	wolfeEnergy          0.0001 \
	wolfeGradient        0.9 \
	fdTest               no
exchange-regularization WignerSeitzTruncated
fluid LinearPCM 298.000000 1.013250
fluid-anion F- 1 MeanFieldLJ \
	epsBulk 1 \
	pMol 0 \
	epsInf 1 \
	Pvap 0 \
	sigmaBulk 0 \
	Rvdw 2.24877 \
	Res 0 \
	tauNuc 343133
fluid-cation Na+ 1 MeanFieldLJ \
	epsBulk 1 \
	pMol 0 \
	epsInf 1 \
	Pvap 0 \
	sigmaBulk 0 \
	Rvdw 2.19208 \
	Res 0 \
	tauNuc 343133
fluid-ex-corr lda-TF lda-PZ
fluid-gummel-loop 10 1.000000e-05
fluid-minimize  \
	dirUpdateScheme      PolakRibiere \
	linminMethod         DirUpdateRecommended \
	nIterations          400 \
	history              15 \
	knormThreshold       1e-11 \
	energyDiffThreshold  0 \
	nEnergyDiff          2 \
	alphaTstart          1 \
	alphaTmin            1e-10 \
	updateTestStepSize   yes \
	alphaTreduceFactor   0.1 \
	alphaTincreaseFactor 3 \
	nAlphaAdjustMax      6 \
	wolfeEnergy          0.0001 \
	wolfeGradient        0.9 \
	fdTest               no
fluid-solvent H2O 55.338 ScalarEOS \
	epsBulk 78.4 \
	pMol 0.92466 \
	epsInf 1.77 \
	Pvap 1.06736e-10 \
	sigmaBulk 4.62e-05 \
	Rvdw 2.61727 \
	Res 1.42 \
	tauNuc 343133 \
	poleEl 15 7 1
forces-output-coords Positions
initial-state NbTe2.$VAR
ion C   0.166666531632309   0.083333455367686   0.566561437114040 1
ion C   0.083333474604824   0.166666526395179   0.433443722749172 1
ion C   0.416666550632307   0.083333455367686   0.566561437114040 1
ion C   0.333333483604822   0.166666526395179   0.433443722749172 1
ion C   0.666666550632307   0.083333455367686   0.566561437114040 1
ion C   0.583333444604822   0.166666526395179   0.433443722749172 1
ion C   0.916666550632307   0.083333455367686   0.566561437114040 1
ion C   0.833333522604821   0.166666526395179   0.433443722749172 1
ion C   0.166666536632313   0.333333465367687   0.566561437114040 1
ion C   0.083333478604825   0.416666536395173   0.433443722749172 1
ion C   0.416666536632313   0.333333465367687   0.566561437114040 1
ion C   0.333333488604825   0.416666536395173   0.433443722749172 1
ion C   0.666666536632313   0.333333465367687   0.566561437114040 1
ion C   0.583333430604821   0.416666536395173   0.433443722749172 1
ion C   0.916666575632313   0.333333465367687   0.566561437114040 1
ion C   0.833333469604820   0.416666536395173   0.433443722749172 1
ion C   0.166666543632310   0.583333440367689   0.566561437114040 1
ion C   0.083333487604822   0.666666534395173   0.433443722749172 1
ion C   0.416666543632310   0.583333440367689   0.566561437114040 1
ion C   0.333333487604822   0.666666534395173   0.433443722749172 1
ion C   0.666666543632310   0.583333440367689   0.566561437114040 1
ion C   0.583333448604822   0.666666534395173   0.433443722749172 1
ion C   0.916666582632310   0.583333440367689   0.566561437114040 1
ion C   0.833333487604822   0.666666534395173   0.433443722749172 1
ion C   0.166666500632310   0.833333394367692   0.566561437114040 1
ion C   0.083333489604822   0.916666578395177   0.433443722749172 1
ion C   0.416666500632310   0.833333394367692   0.566561437114040 1
ion C   0.333333489604822   0.916666578395177   0.433443722749172 1
ion C   0.666666500632310   0.833333394367692   0.566561437114040 1
ion C   0.583333451604826   0.916666578395177   0.433443722749172 1
ion C   0.916666539632310   0.833333394367692   0.566561437114040 1
ion C   0.833333489604822   0.916666578395177   0.433443722749172 1
ion Ti  -0.000000006430495   0.000000006430495   0.499998022656401 1
ion Ti   0.083332914315182   0.166667086684822   0.618881398774232 1
ion Ti   0.166667065878178   0.083332921121817   0.381118601225768 1
ion Ti   0.249999993569505   0.000000006430495   0.499998022656401 1
ion Ti   0.333332923315179   0.166667086684822   0.618881398774232 1
ion Ti   0.416667084878176   0.083332921121817   0.381118601225768 1
ion Ti   0.499999993569505   0.000000006430495   0.499998022656401 1
ion Ti   0.583332884315179   0.166667086684822   0.618881398774232 1
ion Ti   0.666667084878176   0.083332921121817   0.381118601225768 1
ion Ti   0.750000032569505   0.000000006430495   0.499998022656401 1
ion Ti   0.833332962315179   0.166667086684822   0.618881398774232 1
ion Ti   0.916667084878176   0.083332921121817   0.381118601225768 1
ion Ti   0.999999992569509   0.250000004430495   0.499998022656401 1
ion Ti   0.083332918315182   0.416667096684816   0.618881398774232 1
ion Ti   0.166667070878182   0.333332931121818   0.381118601225768 1
ion Ti   0.249999992569509   0.250000004430495   0.499998022656401 1
ion Ti   0.333332928315183   0.416667096684816   0.618881398774232 1
ion Ti   0.416667070878182   0.333332931121818   0.381118601225768 1
ion Ti   0.500000012569503   0.250000004430495   0.499998022656401 1
ion Ti   0.583332870315178   0.416667096684816   0.618881398774232 1
ion Ti   0.666667070878182   0.333332931121818   0.381118601225768 1
ion Ti   0.750000051569503   0.250000004430495   0.499998022656401 1
ion Ti   0.833332909315178   0.416667096684816   0.618881398774232 1
ion Ti   0.916667109878182   0.333332931121818   0.381118601225768 1
ion Ti   0.999999991569505   0.500000003430498   0.499998022656401 1
ion Ti   0.083332927315179   0.666667094684816   0.618881398774232 1
ion Ti   0.166667077878179   0.583332906121820   0.381118601225768 1
ion Ti   0.249999991569505   0.500000003430498   0.499998022656401 1
ion Ti   0.333332927315179   0.666667094684816   0.618881398774232 1
ion Ti   0.416667077878179   0.583332906121820   0.381118601225768 1
ion Ti   0.499999991569505   0.500000003430498   0.499998022656401 1
ion Ti   0.583332888315179   0.666667094684816   0.618881398774232 1
ion Ti   0.666667077878179   0.583332906121820   0.381118601225768 1
ion Ti   0.750000030569505   0.500000003430498   0.499998022656401 1
ion Ti   0.833332927315179   0.666667094684816   0.618881398774232 1
ion Ti   0.916667116878179   0.583332906121820   0.381118601225768 1
ion Ti   0.999999971569503   0.750000001430498   0.499998022656401 1
ion Ti   0.083332929315179   0.916667138684819   0.618881398774232 1
ion Ti   0.166667034878179   0.833332860121823   0.381118601225768 1
ion Ti   0.249999971569503   0.750000001430498   0.499998022656401 1
ion Ti   0.333332929315179   0.916667138684819   0.618881398774232 1
ion Ti   0.416667034878179   0.833332860121823   0.381118601225768 1
ion Ti   0.499999971569503   0.750000001430498   0.499998022656401 1
ion Ti   0.583332891315183   0.916667138684819   0.618881398774232 1
ion Ti   0.666667034878179   0.833332860121823   0.381118601225768 1
ion Ti   0.750000010569503   0.750000001430498   0.499998022656401 1
ion Ti   0.833332929315179   0.916667138684819   0.618881398774232 1
ion Ti   0.916667073878179   0.833332860121823   0.381118601225768 1
ion-species GBRV/$ID_pbe.uspp
ion-width Ecut
ionic-minimize  \
	dirUpdateScheme      L-BFGS \
	linminMethod         DirUpdateRecommended \
	nIterations          500 \
	history              15 \
	knormThreshold       0.0001 \
	energyDiffThreshold  1e-06 \
	nEnergyDiff          2 \
	alphaTstart          1 \
	alphaTmin            1e-10 \
	updateTestStepSize   yes \
	alphaTreduceFactor   0.1 \
	alphaTincreaseFactor 3 \
	nAlphaAdjustMax      3 \
	wolfeEnergy          0.0001 \
	wolfeGradient        0.9 \
	fdTest               no
kpoint   0.000000000000   0.000000000000   0.000000000000  1.00000000000000
kpoint-folding 3 3 1 
latt-move-scale 1 1 1
latt-scale 1.88973 1.88973 1.88973 
lattice Triclinic 12.239 12.239 19.6623 90 90 120
lattice-minimize  \
	dirUpdateScheme      L-BFGS \
	linminMethod         DirUpdateRecommended \
	nIterations          0 \
	history              15 \
	knormThreshold       0 \
	energyDiffThreshold  1e-06 \
	nEnergyDiff          2 \
	alphaTstart          1 \
	alphaTmin            1e-10 \
	updateTestStepSize   yes \
	alphaTreduceFactor   0.1 \
	alphaTincreaseFactor 3 \
	nAlphaAdjustMax      3 \
	wolfeEnergy          0.0001 \
	wolfeGradient        0.9 \
	fdTest               no
lcao-params -1 1e-06 0.0073499
pcm-variant CANDLE
spintype z-spin
subspace-rotation-factor 1 yes
symmetries automatic
symmetry-threshold 0.0001
target-mu -0.171252 no




---------- Setting up symmetries ----------

Found 24 point-group symmetries of the bravais lattice
Found 192 space-group symmetries with basis
Applied RMS atom displacement 6.57349e-05 bohrs to make symmetries exact.

---------- Initializing the Grid ----------
R = 
[    23.1284   -11.5642          0  ]
[          0    20.0297          0  ]
[          0          0    37.1564  ]
unit cell volume = 17212.9
G =
[   0.271666   0.156846         -0  ]
[          0   0.313693          0  ]
[          0         -0   0.169101  ]
Minimum fftbox size, Smin = [  96  96  152  ]
Chosen fftbox size, S = [  96  96  160  ]

---------- Exchange Correlation functional ----------
Initalized PBE GGA exchange.
Initalized PBE GGA correlation.

---------- Setting up pseudopotentials ----------
Width of ionic core gaussian charges (only for fluid interactions / plotting) set to 0.397384

Reading pseudopotential file '/home/guoxy/vasp/jdftx-1.5.0/build/pseudopotentials/GBRV/c_pbe.uspp':
  Title: C.  Created by USPP 7.3.6 on 3-2-2014
  Reference state energy: -5.406344.  4 valence electrons in orbitals:
    |200>  occupation: 2  eigenvalue: -0.504890
    |210>  occupation: 2  eigenvalue: -0.194356
  lMax: 1  lLocal: 2  QijEcut: 5
  4 projectors sampled on a log grid with 503 points:
    l: 0  eig: -0.504890  rCut: 1.3
    l: 0  eig: 0.000000  rCut: 1.3
    l: 1  eig: -0.194357  rCut: 1.3
    l: 1  eig: 0.000000  rCut: 1.3
  Partial core density with radius 1.1
  Transforming core density to a uniform radial grid of dG=0.02 with 1474 points.
  Transforming local potential to a uniform radial grid of dG=0.02 with 1474 points.
  Transforming nonlocal projectors to a uniform radial grid of dG=0.02 with 432 points.
  Transforming density augmentations to a uniform radial grid of dG=0.02 with 1474 points.
  Transforming atomic orbitals to a uniform radial grid of dG=0.02 with 432 points.
  Core radius for overlap checks: 1.30 bohrs.

Reading pseudopotential file '/home/guoxy/vasp/jdftx-1.5.0/build/pseudopotentials/GBRV/ti_pbe.uspp':
  Title: Ti.  Created by USPP 7.3.6 on 31-3-15
  Reference state energy: -59.020943.  12 valence electrons in orbitals:
    |300>  occupation: 2  eigenvalue: -2.777623
    |310>  occupation: 6  eigenvalue: -1.894596
    |400>  occupation: 2  eigenvalue: -0.438610
    |320>  occupation: 1  eigenvalue: -0.583119
  lMax: 2  lLocal: 3  QijEcut: 6
  6 projectors sampled on a log grid with 597 points:
    l: 0  eig: -2.777624  rCut: 1.8
    l: 0  eig: -0.438611  rCut: 1.8
    l: 1  eig: -1.894596  rCut: 1.8
    l: 1  eig: 0.500000  rCut: 1.8
    l: 2  eig: -0.583118  rCut: 1.8
    l: 2  eig: 0.150000  rCut: 1.8
  Partial core density with radius 0.8
  Transforming core density to a uniform radial grid of dG=0.02 with 1474 points.
  Transforming local potential to a uniform radial grid of dG=0.02 with 1474 points.
  Transforming nonlocal projectors to a uniform radial grid of dG=0.02 with 432 points.
  Transforming density augmentations to a uniform radial grid of dG=0.02 with 1474 points.
  Transforming atomic orbitals to a uniform radial grid of dG=0.02 with 432 points.
  Core radius for overlap checks: 1.80 bohrs.

Initialized 2 species with 80 total atoms.

Folded 1 k-points by 3x3x1 to 9 k-points.

---------- Setting up k-points, bands, fillings ----------
Reduced to 3 k-points under symmetry. 
Computing the number of bands and number of electrons
Calculating initial fillings.
nElectrons: 704.000000   nBands: 608   nStates: 6

----- Setting up reduced wavefunction bases (one per k-point) -----
average nbasis = 73527.000 , ideal nbasis = 73534.700

---------- Setting up coulomb interaction ----------
Fluid mode embedding: using embedded box, but periodic Coulomb kernel.
(Fluid response is responsible for (approximate) separation between periodic images.)
Setting up double-sized grid for truncated Coulomb potentials:
R = 
[    23.1284   -11.5642          0  ]
[          0    20.0297          0  ]
[          0          0    74.3127  ]
unit cell volume = 34425.7
G =
[   0.271666   0.156846         -0  ]
[          0   0.313693          0  ]
[          0         -0  0.0845506  ]
Chosen fftbox size, S = [  96  96  320  ]
Integer grid location selected as the embedding center:
   Grid: [  48  48  80  ]
   Lattice: [  0.5  0.5  0.5  ]
   Cartesian: [  5.78209  10.0149  18.5782  ]
Constructing Wigner-Seitz cell: 8 faces (6 quadrilaterals, 2 hexagons)
Range-separation parameter for embedded mesh potentials due to point charges: 0.619223 bohrs.

Initializing van der Waals corrections
	NOTE: vdW corrections apply only for interactions with fluid.
	 C:  C6:   30.35 Eh-a0^6  R0: 2.744 a0
	Ti:  C6:  187.33 Eh-a0^6  R0: 2.952 a0

---------- Setting up ewald sum ----------
Optimum gaussian width for ewald sums = 6.252056 bohr.
Real space sum over 405 unit cells with max indices [  4  4  2  ]
Reciprocal space sum over 8775 terms with max indices [  7  7  19  ]

---------- Allocating electronic variables ----------
Initializing wave functions:  linear combination of atomic orbitals
C pseudo-atom occupations:   s ( 2 )  p ( 2 )
Ti pseudo-atom occupations:   s ( 2 0 )  p ( 6 )  d ( 4 )
	FillingsUpdate:  mu: -0.171251800  nElectrons: 704.000000  magneticMoment: [ Abs: 10.55816  Tot: +10.55793 ]
LCAOMinimize: Iter:   0  G: -2473.6596886747206554  |grad|_K:  1.096e-01  alpha:  1.000e+00
LCAOMinimize: 	Step increased G by 5.081240e+02, reducing alpha to 4.825914e-02.
	FillingsUpdate:  mu: -0.171251800  nElectrons: 704.000000  magneticMoment: [ Abs: 8.59795  Tot: +8.59423 ]
LCAOMinimize: Iter:   1  G: -2580.1289788396957192  |grad|_K:  1.720e-02  alpha:  4.826e-02  linmin: -2.928e-02  cgtest: -4.193e+00  t[s]:    375.65
LCAOMinimize: 	Wrong curvature in test step, increasing alphaT to 1.447774e-01.
	FillingsUpdate:  mu: -0.171251800  nElectrons: 704.000000  magneticMoment: [ Abs: 6.15278  Tot: +6.15257 ]
LCAOMinimize: Iter:   2  G: -2619.6047355757423247  |grad|_K:  2.321e-02  alpha: -4.210e-01  linmin: -1.209e-01  cgtest:  6.835e-01  t[s]:    470.17
LCAOMinimize: 	Step increased G by 3.440150e+02, reducing alpha to 4.050810e-02.
	FillingsUpdate:  mu: -0.171251800  nElectrons: 704.000000  magneticMoment: [ Abs: 4.60239  Tot: +4.56458 ]
LCAOMinimize: Iter:   3  G: -2786.0551657041223734  |grad|_K:  1.430e-02  alpha:  4.051e-02  linmin: -3.568e-01  cgtest:  3.657e-01  t[s]:    635.05
LCAOMinimize: 	Predicted alpha/alphaT>3.000000, increasing alphaT to 1.215243e-01.
	FillingsUpdate:  mu: -0.171251800  nElectrons: 704.000000  magneticMoment: [ Abs: 3.00595  Tot: +2.99136 ]
LCAOMinimize: Iter:   4  G: -2850.8199671092061180  |grad|_K:  4.049e-03  alpha:  1.724e-01  linmin:  7.224e-02  cgtest: -6.037e-01  t[s]:    759.39
	FillingsUpdate:  mu: -0.171251800  nElectrons: 704.000000  magneticMoment: [ Abs: 2.75738  Tot: +2.72936 ]
LCAOMinimize: Iter:   5  G: -2851.1776869922587139  |grad|_K:  3.199e-03  alpha:  4.071e-02  linmin:  3.629e-02  cgtest:  8.279e-01  t[s]:    856.07
LCAOMinimize: Encountered beta<0, resetting CG.
LCAOMinimize: 	Predicted alpha/alphaT>3.000000, increasing alphaT to 1.221364e-01.
	FillingsUpdate:  mu: -0.171251800  nElectrons: 704.000000  magneticMoment: [ Abs: 2.14843  Tot: +1.98770 ]
LCAOMinimize: Iter:   6  G: -2851.4212630460551736  |grad|_K:  6.678e-03  alpha:  2.616e-01  linmin:  1.726e-01  cgtest: -3.571e-01  t[s]:    980.01
LCAOMinimize: 	Bad step direction: g.d > 0.
LCAOMinimize: 	Undoing step.
LCAOMinimize: 	Step failed: resetting search direction.
	FillingsUpdate:  mu: -0.171251800  nElectrons: 704.000000  magneticMoment: [ Abs: 2.14843  Tot: +1.98770 ]
LCAOMinimize: Iter:   7  G: -2851.4212630460551736  |grad|_K:  6.678e-03  alpha:  0.000e+00
	FillingsUpdate:  mu: -0.171251800  nElectrons: 704.000000  magneticMoment: [ Abs: 2.36256  Tot: +2.23294 ]
LCAOMinimize: Iter:   8  G: -2854.0767451780957344  |grad|_K:  1.932e-03  alpha:  8.379e-02  linmin:  2.502e-01  cgtest: -1.065e+00  t[s]:   1144.35
LCAOMinimize: 	Bad step direction: g.d > 0.
LCAOMinimize: 	Undoing step.
LCAOMinimize: 	Step failed: resetting search direction.
	FillingsUpdate:  mu: -0.171251800  nElectrons: 704.000000  magneticMoment: [ Abs: 2.36256  Tot: +2.23294 ]
LCAOMinimize: Iter:   9  G: -2854.0767451780957344  |grad|_K:  1.932e-03  alpha:  0.000e+00
	FillingsUpdate:  mu: -0.171251800  nElectrons: 704.000000  magneticMoment: [ Abs: 2.19842  Tot: +2.04542 ]
LCAOMinimize: Iter:  10  G: -2854.3820522081268791  |grad|_K:  3.463e-04  alpha:  7.266e-02  linmin:  6.368e-02  cgtest: -2.233e-01  t[s]:   1309.30
LCAOMinimize: 	Wrong curvature in test step, increasing alphaT to 2.179694e-01.
	FillingsUpdate:  mu: -0.171251800  nElectrons: 704.000000  magneticMoment: [ Abs: 2.10945  Tot: +1.95016 ]
LCAOMinimize: Iter:  11  G: -2854.4022323083158881  |grad|_K:  3.052e-04  alpha: -2.552e-01  linmin: -1.897e-01  cgtest:  9.938e-01  t[s]:   1403.67
LCAOMinimize: Encountered beta<0, resetting CG.
	FillingsUpdate:  mu: -0.171251800  nElectrons: 704.000000  magneticMoment: [ Abs: 1.88789  Tot: +1.71719 ]
LCAOMinimize: Iter:  12  G: -2854.4334031719281484  |grad|_K:  3.760e-04  alpha:  2.220e-01  linmin:  9.739e-03  cgtest: -4.631e-02  t[s]:   1500.23
	FillingsUpdate:  mu: -0.171251800  nElectrons: 704.000000  magneticMoment: [ Abs: 0.96080  Tot: +0.73521 ]
LCAOMinimize: Iter:  13  G: -2854.4614137560670315  |grad|_K:  4.029e-04  alpha:  3.584e-01  linmin:  1.296e-01  cgtest: -8.277e-01  t[s]:   1596.93
LCAOMinimize: 	Bad step direction: g.d > 0.
LCAOMinimize: 	Undoing step.
LCAOMinimize: 	Step failed: resetting search direction.
	FillingsUpdate:  mu: -0.171251800  nElectrons: 704.000000  magneticMoment: [ Abs: 0.96080  Tot: +0.73521 ]
LCAOMinimize: Iter:  14  G: -2854.4614137560670315  |grad|_K:  4.029e-04  alpha:  0.000e+00
	FillingsUpdate:  mu: -0.171251800  nElectrons: 704.000000  magneticMoment: [ Abs: 0.92867  Tot: +0.71324 ]
LCAOMinimize: Iter:  15  G: -2854.4747977390507003  |grad|_K:  2.518e-04  alpha:  9.631e-02  linmin: -2.665e-02  cgtest:  7.944e-02  t[s]:   1762.00
	FillingsUpdate:  mu: -0.171251800  nElectrons: 704.000000  magneticMoment: [ Abs: 0.87610  Tot: +0.67225 ]
LCAOMinimize: Iter:  16  G: -2854.4814645464025489  |grad|_K:  1.530e-04  alpha:  9.260e-02  linmin: -2.447e-01  cgtest:  9.727e-01  t[s]:   1858.21
LCAOMinimize: Encountered beta<0, resetting CG.
	FillingsUpdate:  mu: -0.171251800  nElectrons: 704.000000  magneticMoment: [ Abs: 0.84549  Tot: +0.64793 ]
LCAOMinimize: Iter:  17  G: -2854.4831511951629182  |grad|_K:  1.117e-04  alpha:  7.500e-02  linmin: -2.118e-01  cgtest:  7.996e-01  t[s]:   1954.68
LCAOMinimize: Encountered beta<0, resetting CG.
	FillingsUpdate:  mu: -0.171251800  nElectrons: 704.000000  magneticMoment: [ Abs: 0.82521  Tot: +0.63212 ]
LCAOMinimize: Iter:  18  G: -2854.4836553083009676  |grad|_K:  9.803e-05  alpha:  5.428e-02  linmin: -2.537e-01  cgtest:  9.940e-01  t[s]:   2051.07
LCAOMinimize: Encountered beta<0, resetting CG.
	FillingsUpdate:  mu: -0.171251800  nElectrons: 704.000000  magneticMoment: [ Abs: 0.81151  Tot: +0.62139 ]
LCAOMinimize: Iter:  19  G: -2854.4838832605578318  |grad|_K:  9.031e-05  alpha:  3.710e-02  linmin: -2.533e-01  cgtest:  9.995e-01  t[s]:   2147.44
LCAOMinimize: Encountered beta<0, resetting CG.
	FillingsUpdate:  mu: -0.171251800  nElectrons: 704.000000  magneticMoment: [ Abs: 0.80265  Tot: +0.61445 ]
LCAOMinimize: Iter:  20  G: -2854.4839937180413472  |grad|_K:  8.568e-05  alpha:  2.430e-02  linmin: -2.527e-01  cgtest:  9.998e-01  t[s]:   2243.66
LCAOMinimize: Encountered beta<0, resetting CG.
	FillingsUpdate:  mu: -0.171251800  nElectrons: 704.000000  magneticMoment: [ Abs: 0.79705  Tot: +0.61006 ]
LCAOMinimize: Iter:  21  G: -2854.4840505801130348  |grad|_K:  8.290e-05  alpha:  1.548e-02  linmin: -2.523e-01  cgtest:  9.999e-01  t[s]:   2340.08
LCAOMinimize: Encountered beta<0, resetting CG.
	FillingsUpdate:  mu: -0.171251800  nElectrons: 704.000000  magneticMoment: [ Abs: 0.79356  Tot: +0.60733 ]
LCAOMinimize: Iter:  22  G: -2854.4840813958030594  |grad|_K:  8.122e-05  alpha:  9.697e-03  linmin: -2.520e-01  cgtest:  9.999e-01  t[s]:   2436.74
LCAOMinimize: Encountered beta<0, resetting CG.
	FillingsUpdate:  mu: -0.171251800  nElectrons: 704.000000  magneticMoment: [ Abs: 0.79141  Tot: +0.60564 ]
LCAOMinimize: Iter:  23  G: -2854.4840987617526480  |grad|_K:  8.020e-05  alpha:  6.008e-03  linmin: -2.519e-01  cgtest:  1.000e+00  t[s]:   2533.15
LCAOMinimize: Encountered beta<0, resetting CG.
	FillingsUpdate:  mu: -0.171251800  nElectrons: 704.000000  magneticMoment: [ Abs: 0.79009  Tot: +0.60461 ]
LCAOMinimize: Iter:  24  G: -2854.4841088217522156  |grad|_K:  7.958e-05  alpha:  3.698e-03  linmin: -2.518e-01  cgtest:  1.000e+00  t[s]:   2629.40
LCAOMinimize: Encountered beta<0, resetting CG.
	FillingsUpdate:  mu: -0.171251800  nElectrons: 704.000000  magneticMoment: [ Abs: 0.78928  Tot: +0.60397 ]
LCAOMinimize: Iter:  25  G: -2854.4841147582301346  |grad|_K:  7.920e-05  alpha:  2.267e-03  linmin: -2.517e-01  cgtest:  1.000e+00  t[s]:   2725.72
LCAOMinimize: Encountered beta<0, resetting CG.
	FillingsUpdate:  mu: -0.171251800  nElectrons: 704.000000  magneticMoment: [ Abs: 0.78879  Tot: +0.60358 ]
LCAOMinimize: Iter:  26  G: -2854.4841183035682661  |grad|_K:  7.897e-05  alpha:  1.386e-03  linmin: -2.517e-01  cgtest:  1.000e+00  t[s]:   2822.29
LCAOMinimize: Encountered beta<0, resetting CG.
	FillingsUpdate:  mu: -0.171251800  nElectrons: 704.000000  magneticMoment: [ Abs: 0.78849  Tot: +0.60335 ]
LCAOMinimize: Iter:  27  G: -2854.4841204368508443  |grad|_K:  7.883e-05  alpha:  8.462e-04  linmin: -2.516e-01  cgtest:  1.000e+00  t[s]:   2918.96
LCAOMinimize: Encountered beta<0, resetting CG.
	FillingsUpdate:  mu: -0.171251800  nElectrons: 704.000000  magneticMoment: [ Abs: 0.78830  Tot: +0.60320 ]
LCAOMinimize: Iter:  28  G: -2854.4841217264138322  |grad|_K:  7.875e-05  alpha:  5.162e-04  linmin: -2.516e-01  cgtest:  1.000e+00  t[s]:   3015.22
LCAOMinimize: Encountered beta<0, resetting CG.
	FillingsUpdate:  mu: -0.171251800  nElectrons: 704.000000  magneticMoment: [ Abs: 0.78819  Tot: +0.60312 ]
LCAOMinimize: Iter:  29  G: -2854.4841225084992402  |grad|_K:  7.870e-05  alpha:  3.147e-04  linmin: -2.516e-01  cgtest:  1.000e+00  t[s]:   3111.75
LCAOMinimize: Encountered beta<0, resetting CG.
	FillingsUpdate:  mu: -0.171251800  nElectrons: 704.000000  magneticMoment: [ Abs: 0.78812  Tot: +0.60306 ]
LCAOMinimize: Iter:  30  G: -2854.4841229833032230  |grad|_K:  7.866e-05  alpha:  1.918e-04  linmin: -2.516e-01  cgtest:  1.000e+00  t[s]:   3208.42
LCAOMinimize: Encountered beta<0, resetting CG.
LCAOMinimize: Converged (|Delta G|<1.000000e-06 for 2 iters).
----- createFluidSolver() ----- (Fluid-side solver setup)
   Initializing fluid molecule 'H2O'
     Initializing site 'O'
       Electron density: proportional to exp(-r/0.36935)*erfc((r-0.51523)/0.36823) with norm 6.826
       Charge density: gaussian nuclear width 0.478731 with net site charge 0.826
       Polarizability: cuspless exponential with width 0.32 and norm 3.73
       Hard sphere radius: 2.57003 bohrs
       Positions in reference frame:
         [ +0.000000 +0.000000 +0.000000 ]
     Initializing site 'H'
       Electron density: proportional to exp(-r/0.34641)*erfc((r-0)/0.390882) with norm 0.587
       Charge density: gaussian nuclear width 0.377945 with net site charge -0.413
       Polarizability: cuspless exponential with width 0.39 and norm 3.3
       Positions in reference frame:
         [ +0.000000 -1.441945 +1.122523 ]
         [ +0.000000 +1.441945 +1.122523 ]
     Net charge: 0   dipole magnitude: 0.927204
     Initializing spherical shell mfKernel with radius 2.61727 Bohr
     deltaS corrections:
       site 'O': -7.54299
       site 'H': -6.83917
   Initializing fluid molecule 'Na+'
     Initializing site 'Na'
       Electron density: proportional to exp(-r/0.19682)*erfc((r-0.71491)/0.41314) with norm 8.1383
       Charge density: gaussian nuclear width 0.365347 with net site charge -1
       Hard sphere radius: 1.86327 bohrs
       Positions in reference frame:
         [ +0.000000 +0.000000 +0.000000 ]
     Net charge: -1   dipole magnitude: 0
     Initializing gaussian mfKernel with width: 1.55004 Bohr
     deltaS corrections:
       site 'Na': -22.3555
   Initializing fluid molecule 'F-'
     Initializing site 'F'
       Electron density: proportional to exp(-r/0.38886)*erfc((r-0)/0.438782) with norm 8
       Charge density: gaussian nuclear width 0.374796 with net site charge 1
       Hard sphere radius: 2.39995 bohrs
       Positions in reference frame:
         [ +0.000000 +0.000000 +0.000000 ]
     Net charge: 1   dipole magnitude: 0
     Initializing gaussian mfKernel with width: 1.59012 Bohr
     deltaS corrections:
       site 'F': -9.04335

Correction to mu due to finite nuclear width = -0.0202903
   Cavity determined by nc: 0.00142 and sigma: 0.707107
   Nonlocal vdW cavity from gaussian model electron density with norm = 8 and sigma = 0.993594 bohr
   Charge asymmetry in cavity with sensitivity pCavity = 36.5 e-bohr/Eh
   Electrostatic cavity expanded by eta = 1.46 bohrs
   Weighted density cavitation model constrained by Nbulk: 0.0049383 bohr^-3, Pvap: 3.14029 kPa, Rvdw: 2.61727 bohr and sigmaBulk: 4.62e-05 Eh/bohr^2 at T: 298 K.
   Weighted density dispersion model using vdW pair potentials with single solvent site with sqrtC6eff: 0.77 SI.


---- Citations for features of the code used in this run ----

   Software package:
      R. Sundararaman, K. Letchworth-Weaver, K.A. Schwarz, D. Gunceler, Y. Ozhabes and T.A. Arias, 'JDFTx: software for joint density-functional theory', SoftwareX 6, 278 (2017)

   gga-PBE exchange-correlation functional:
      J.P. Perdew, K. Burke and M. Ernzerhof, Phys. Rev. Lett. 77, 3865 (1996)

   Pseudopotentials:
      KF Garrity, JW Bennett, KM Rabe and D Vanderbilt, Comput. Mater. Sci. 81, 446 (2014)

   Truncated Coulomb potentials:
      R. Sundararaman and T.A. Arias, Phys. Rev. B 87, 165122 (2013)

   Van der Waals correction pair-potentials:
      S. Grimme, J. Comput. Chem. 27, 1787 (2006)

   Charge-asymmetric nonlocally-determined local-electric (CANDLE) solvation model:
      R. Sundararaman and W.A. Goddard III, J. Chem. Phys. 142, 064107 (2015)

   Total energy minimization with Auxiliary Hamiltonian:
      C. Freysoldt, S. Boeck, and J. Neugebauer, Phys. Rev. B 79, 241103(R) (2009)

   Grand-canonical (fixed-potential) DFT:
      R. Sundararaman, W. A. Goddard III and T. A. Arias, J. Chem. Phys. 146, 114104 (2017)

This list may not be complete. Please suggest additional citations or
report any other bugs at https://github.com/shankar1729/jdftx/issues

Initialization completed successfully at t[s]:   3226.19

Fluid solver invoked on fresh (partially random / LCAO) wavefunctions
Running a vacuum solve first:

-------- Initial electronic minimization -----------
	FillingsUpdate:  mu: +0.232291180  nElectrons: 704.000000  magneticMoment: [ Abs: 0.78812  Tot: +0.60306 ]
ElecMinimize: Iter:   0  G: -2854.574445495008604  |grad|_K:  2.113e-04  alpha:  1.000e+00
	FillingsUpdate:  mu: +0.070300450  nElectrons: 704.000000  magneticMoment: [ Abs: 0.65086  Tot: +0.49693 ]
	SubspaceRotationAdjust: set factor to 1.01
ElecMinimize: Iter:   1  G: -2859.018548737024048  |grad|_K:  1.222e-04  alpha:  3.753e-01  linmin:  5.027e-05  t[s]:   3461.03
	FillingsUpdate:  mu: +0.080122087  nElectrons: 704.000000  magneticMoment: [ Abs: 0.49291  Tot: +0.37897 ]
	SubspaceRotationAdjust: set factor to 0.789
ElecMinimize: Iter:   2  G: -2861.087867992400788  |grad|_K:  8.047e-05  alpha:  5.195e-01  linmin: -1.070e-04  t[s]:   3607.47
	FillingsUpdate:  mu: +0.061323325  nElectrons: 704.000000  magneticMoment: [ Abs: 0.29232  Tot: +0.21511 ]
	SubspaceRotationAdjust: set factor to 0.537
ElecMinimize: Iter:   3  G: -2861.935792621885867  |grad|_K:  7.712e-05  alpha:  4.779e-01  linmin: -2.260e-05  t[s]:   3753.71
	FillingsUpdate:  mu: +0.007638346  nElectrons: 704.000000  magneticMoment: [ Abs: 0.23174  Tot: +0.16743 ]
	SubspaceRotationAdjust: set factor to 0.352
ElecMinimize: Iter:   4  G: -2862.155252507206569  |grad|_K:  4.659e-05  alpha:  1.473e-01  linmin:  5.365e-04  t[s]:   3900.13
ElecMinimize: 	Predicted alpha/alphaT>3.000000, increasing alphaT to 4.419119e-01.
	FillingsUpdate:  mu: -0.036243100  nElectrons: 704.000000  magneticMoment: [ Abs: 0.14571  Tot: +0.10555 ]
	SubspaceRotationAdjust: set factor to 0.367
ElecMinimize: Iter:   5  G: -2862.412973595233780  |grad|_K:  3.147e-05  alpha:  4.642e-01  linmin:  1.459e-04  t[s]:   4087.29
	FillingsUpdate:  mu: -0.025427219  nElectrons: 704.000000  magneticMoment: [ Abs: 0.11709  Tot: +0.08702 ]
	SubspaceRotationAdjust: set factor to 0.295
ElecMinimize: Iter:   6  G: -2862.493769359671205  |grad|_K:  2.233e-05  alpha:  3.102e-01  linmin: -8.509e-07  t[s]:   4233.47
	FillingsUpdate:  mu: -0.020255609  nElectrons: 704.000000  magneticMoment: [ Abs: 0.09818  Tot: +0.07643 ]
	SubspaceRotationAdjust: set factor to 0.371
ElecMinimize: Iter:   7  G: -2862.548968994540701  |grad|_K:  1.655e-05  alpha:  4.120e-01  linmin:  8.404e-06  t[s]:   4379.38
	FillingsUpdate:  mu: -0.025098940  nElectrons: 704.000000  magneticMoment: [ Abs: 0.08527  Tot: +0.07058 ]
	SubspaceRotationAdjust: set factor to 0.349
ElecMinimize: Iter:   8  G: -2862.582980246672832  |grad|_K:  1.165e-05  alpha:  4.648e-01  linmin:  9.726e-06  t[s]:   4525.40
	FillingsUpdate:  mu: -0.023574088  nElectrons: 704.000000  magneticMoment: [ Abs: 0.08124  Tot: +0.06988 ]
	SubspaceRotationAdjust: set factor to 0.326
ElecMinimize: Iter:   9  G: -2862.594628379313235  |grad|_K:  9.094e-06  alpha:  3.203e-01  linmin:  1.191e-07  t[s]:   4671.67
	FillingsUpdate:  mu: -0.027221298  nElectrons: 704.000000  magneticMoment: [ Abs: 0.07834  Tot: +0.07184 ]
	SubspaceRotationAdjust: set factor to 0.409
ElecMinimize: Iter:  10  G: -2862.606752196887101  |grad|_K:  6.209e-06  alpha:  5.460e-01  linmin:  6.846e-06  t[s]:   4817.47
	FillingsUpdate:  mu: -0.029949724  nElectrons: 704.000000  magneticMoment: [ Abs: 0.07873  Tot: +0.07407 ]
	SubspaceRotationAdjust: set factor to 0.411
ElecMinimize: Iter:  11  G: -2862.610666398006742  |grad|_K:  5.231e-06  alpha:  3.792e-01  linmin:  5.434e-08  t[s]:   4963.74
	FillingsUpdate:  mu: -0.029487788  nElectrons: 704.000000  magneticMoment: [ Abs: 0.08073  Tot: +0.07727 ]
	SubspaceRotationAdjust: set factor to 0.354
ElecMinimize: Iter:  12  G: -2862.613315693985896  |grad|_K:  3.773e-06  alpha:  3.596e-01  linmin:  1.370e-08  t[s]:   5109.78
	FillingsUpdate:  mu: -0.031535839  nElectrons: 704.000000  magneticMoment: [ Abs: 0.08432  Tot: +0.08123 ]
	SubspaceRotationAdjust: set factor to 0.415
ElecMinimize: Iter:  13  G: -2862.614964684375536  |grad|_K:  2.687e-06  alpha:  4.304e-01  linmin:  2.374e-06  t[s]:   5256.35
	FillingsUpdate:  mu: -0.032583479  nElectrons: 704.000000  magneticMoment: [ Abs: 0.08886  Tot: +0.08534 ]
	SubspaceRotationAdjust: set factor to 0.414
ElecMinimize: Iter:  14  G: -2862.615933989444329  |grad|_K:  2.258e-06  alpha:  4.995e-01  linmin:  2.328e-06  t[s]:   5402.59
	FillingsUpdate:  mu: -0.031646296  nElectrons: 704.000000  magneticMoment: [ Abs: 0.09196  Tot: +0.08798 ]
	SubspaceRotationAdjust: set factor to 0.328
ElecMinimize: Iter:  15  G: -2862.616312863329767  |grad|_K:  1.451e-06  alpha:  2.760e-01  linmin: -5.186e-07  t[s]:   5548.72
	FillingsUpdate:  mu: -0.031998750  nElectrons: 704.000000  magneticMoment: [ Abs: 0.09694  Tot: +0.09214 ]
	SubspaceRotationAdjust: set factor to 0.423
ElecMinimize: Iter:  16  G: -2862.616614727643082  |grad|_K:  1.093e-06  alpha:  5.329e-01  linmin:  2.670e-06  t[s]:   5695.76
	FillingsUpdate:  mu: -0.032426571  nElectrons: 704.000000  magneticMoment: [ Abs: 0.10099  Tot: +0.09552 ]
	SubspaceRotationAdjust: set factor to 0.433
ElecMinimize: Iter:  17  G: -2862.616760527083443  |grad|_K:  8.484e-07  alpha:  4.543e-01  linmin:  8.204e-07  t[s]:   5843.53
	FillingsUpdate:  mu: -0.032077451  nElectrons: 704.000000  magneticMoment: [ Abs: 0.10528  Tot: +0.09918 ]
	SubspaceRotationAdjust: set factor to 0.391
ElecMinimize: Iter:  18  G: -2862.616844403447431  |grad|_K:  7.595e-07  alpha:  4.330e-01  linmin:  5.156e-07  t[s]:   5991.31
	FillingsUpdate:  mu: -0.032229878  nElectrons: 704.000000  magneticMoment: [ Abs: 0.10951  Tot: +0.10285 ]
	SubspaceRotationAdjust: set factor to 0.39
ElecMinimize: Iter:  19  G: -2862.616896158249347  |grad|_K:  4.519e-07  alpha:  3.331e-01  linmin:  4.098e-07  t[s]:   6139.00
	FillingsUpdate:  mu: -0.032205319  nElectrons: 704.000000  magneticMoment: [ Abs: 0.11431  Tot: +0.10711 ]
	SubspaceRotationAdjust: set factor to 0.445
ElecMinimize: Iter:  20  G: -2862.616925877190170  |grad|_K:  3.577e-07  alpha:  5.411e-01  linmin:  9.106e-07  t[s]:   6286.03
	FillingsUpdate:  mu: -0.032202024  nElectrons: 704.000000  magneticMoment: [ Abs: 0.11868  Tot: +0.11106 ]
	SubspaceRotationAdjust: set factor to 0.493
ElecMinimize: Iter:  21  G: -2862.616940808981781  |grad|_K:  2.534e-07  alpha:  4.339e-01  linmin:  1.708e-07  t[s]:   6433.53
	FillingsUpdate:  mu: -0.032286201  nElectrons: 704.000000  magneticMoment: [ Abs: 0.12251  Tot: +0.11458 ]
	SubspaceRotationAdjust: set factor to 0.436
ElecMinimize: Iter:  22  G: -2862.616947161681310  |grad|_K:  2.264e-07  alpha:  3.674e-01  linmin:  7.663e-08  t[s]:   6581.12
	FillingsUpdate:  mu: -0.032142464  nElectrons: 704.000000  magneticMoment: [ Abs: 0.12728  Tot: +0.11900 ]
	SubspaceRotationAdjust: set factor to 0.403
ElecMinimize: Iter:  23  G: -2862.616951733462884  |grad|_K:  1.444e-07  alpha:  3.313e-01  linmin:  1.362e-07  t[s]:   6728.95
	FillingsUpdate:  mu: -0.032109214  nElectrons: 704.000000  magneticMoment: [ Abs: 0.13276  Tot: +0.12411 ]
	SubspaceRotationAdjust: set factor to 0.486
ElecMinimize: Iter:  24  G: -2862.616954408281799  |grad|_K:  1.055e-07  alpha:  4.766e-01  linmin:  2.505e-07  t[s]:   6876.14
	FillingsUpdate:  mu: -0.032138615  nElectrons: 704.000000  magneticMoment: [ Abs: 0.13850  Tot: +0.12947 ]
	SubspaceRotationAdjust: set factor to 0.546
ElecMinimize: Iter:  25  G: -2862.616955890030113  |grad|_K:  7.741e-08  alpha:  4.951e-01  linmin:  1.665e-07  t[s]:   7023.40
	FillingsUpdate:  mu: -0.032129019  nElectrons: 704.000000  magneticMoment: [ Abs: 0.14389  Tot: +0.13452 ]
	SubspaceRotationAdjust: set factor to 0.541
ElecMinimize: Iter:  26  G: -2862.616956554625176  |grad|_K:  6.892e-08  alpha:  4.122e-01  linmin:  3.180e-08  t[s]:   7170.95
	FillingsUpdate:  mu: -0.032155836  nElectrons: 704.000000  magneticMoment: [ Abs: 0.14919  Tot: +0.13949 ]
	SubspaceRotationAdjust: set factor to 0.465
ElecMinimize: Iter:  27  G: -2862.616956923469388  |grad|_K:  5.378e-08  alpha:  2.883e-01  linmin:  1.635e-08  t[s]:   7318.30
	FillingsUpdate:  mu: -0.032134403  nElectrons: 704.000000  magneticMoment: [ Abs: 0.15676  Tot: +0.14661 ]
	SubspaceRotationAdjust: set factor to 0.49
ElecMinimize: Iter:  28  G: -2862.616957227949115  |grad|_K:  3.735e-08  alpha:  3.910e-01  linmin:  6.025e-08  t[s]:   7465.93
	FillingsUpdate:  mu: -0.032147569  nElectrons: 704.000000  magneticMoment: [ Abs: 0.16578  Tot: +0.15508 ]
	SubspaceRotationAdjust: set factor to 0.598
ElecMinimize: Iter:  29  G: -2862.616957429962440  |grad|_K:  3.176e-08  alpha:  5.384e-01  linmin:  7.641e-08  t[s]:   7613.27
	FillingsUpdate:  mu: -0.032159610  nElectrons: 704.000000  magneticMoment: [ Abs: 0.17738  Tot: +0.16594 ]
	SubspaceRotationAdjust: set factor to 0.726
ElecMinimize: Iter:  30  G: -2862.616957584333250  |grad|_K:  3.057e-08  alpha:  5.689e-01  linmin:  7.209e-08  t[s]:   7760.77
	FillingsUpdate:  mu: -0.032138500  nElectrons: 704.000000  magneticMoment: [ Abs: 0.19377  Tot: +0.18131 ]
	SubspaceRotationAdjust: set factor to 0.56
ElecMinimize: Iter:  31  G: -2862.616957723417272  |grad|_K:  4.482e-08  alpha:  5.533e-01  linmin:  4.624e-08  t[s]:   7908.25
	FillingsUpdate:  mu: -0.032153549  nElectrons: 704.000000  magneticMoment: [ Abs: 0.21580  Tot: +0.20198 ]
	SubspaceRotationAdjust: set factor to 0.517
ElecMinimize: Iter:  32  G: -2862.616957876507513  |grad|_K:  4.442e-08  alpha:  2.830e-01  linmin: -1.645e-08  t[s]:   8054.91
	FillingsUpdate:  mu: -0.032157259  nElectrons: 704.000000  magneticMoment: [ Abs: 0.27575  Tot: +0.25820 ]
	SubspaceRotationAdjust: set factor to 0.613
ElecMinimize: Iter:  33  G: -2862.616958232954858  |grad|_K:  5.851e-08  alpha:  6.762e-01  linmin:  4.315e-07  t[s]:   8202.53
	FillingsUpdate:  mu: -0.032140304  nElectrons: 704.000000  magneticMoment: [ Abs: 0.45667  Tot: +0.42790 ]
	SubspaceRotationAdjust: set factor to 0.597
ElecMinimize: Iter:  34  G: -2862.616959139048049  |grad|_K:  1.418e-07  alpha:  1.078e+00  linmin:  3.617e-06  t[s]:   8349.69
ElecMinimize: 	Step increased G by 8.640200e-12, reducing alpha to 1.236326e-07.
	FillingsUpdate:  mu: -0.032140304  nElectrons: 704.000000  magneticMoment: [ Abs: 0.45667  Tot: +0.42790 ]
	SubspaceRotationAdjust: set factor to 0.589
ElecMinimize: Iter:  35  G: -2862.616959139084884  |grad|_K:  1.408e-07  alpha:  1.236e-07  linmin: -1.504e-05  t[s]:   8592.31
ElecMinimize: 	Step increased G by 3.046807e-11, reducing alpha to 9.782193e-10.
ElecMinimize: 	Step increased G by 4.501999e-11, reducing alpha to 9.782193e-11.
ElecMinimize: 	Step increased G by 2.410161e-11, reducing alpha to 9.782193e-12.
ElecMinimize: 	Step failed to reduce G after 3 attempts. Quitting step.
ElecMinimize: 	Undoing step.
ElecMinimize: 	Step failed: resetting search direction.
	FillingsUpdate:  mu: -0.032140304  nElectrons: 704.000000  magneticMoment: [ Abs: 0.45667  Tot: +0.42790 ]
	SubspaceRotationAdjust: set factor to 0.585
ElecMinimize: Iter:  36  G: -2862.616959139056235  |grad|_K:  1.403e-07  alpha:  9.782e-12
ElecMinimize: 	Wrong curvature in test step, increasing alphaT to 3.708979e-07.
	FillingsUpdate:  mu: -0.032140304  nElectrons: 704.000000  magneticMoment: [ Abs: 0.45667  Tot: +0.42790 ]
	SubspaceRotationAdjust: set factor to 0.582
ElecMinimize: Iter:  37  G: -2862.616959139092614  |grad|_K:  1.401e-07  alpha: -2.315e-09  linmin: -8.647e-05  t[s]:   9156.67
	FillingsUpdate:  mu: -0.032192086  nElectrons: 704.000000  magneticMoment: [ Abs: 0.46289  Tot: +0.43370 ]
	SubspaceRotationAdjust: set factor to 0.402
ElecMinimize: Iter:  38  G: -2862.616960357974676  |grad|_K:  1.277e-07  alpha:  1.172e-01  linmin:  2.038e-06  t[s]:   9303.79
	FillingsUpdate:  mu: -0.032192120  nElectrons: 704.000000  magneticMoment: [ Abs: 0.47476  Tot: +0.44475 ]
	SubspaceRotationAdjust: set factor to 0.294
ElecMinimize: Iter:  39  G: -2862.616961077114865  |grad|_K:  1.579e-07  alpha:  1.674e-01  linmin: -3.843e-07  t[s]:   9450.96
	FillingsUpdate:  mu: -0.032141192  nElectrons: 704.000000  magneticMoment: [ Abs: 0.49348  Tot: +0.46212 ]
	SubspaceRotationAdjust: set factor to 0.467
ElecMinimize: Iter:  40  G: -2862.616962071022499  |grad|_K:  1.322e-07  alpha:  1.466e-01  linmin: -8.028e-08  t[s]:   9598.70
	FillingsUpdate:  mu: -0.032097199  nElectrons: 704.000000  magneticMoment: [ Abs: 0.50843  Tot: +0.47595 ]
	SubspaceRotationAdjust: set factor to 0.456
ElecMinimize: Iter:  41  G: -2862.616962746960326  |grad|_K:  1.144e-07  alpha:  1.431e-01  linmin: -2.623e-08  t[s]:   9745.67
	FillingsUpdate:  mu: -0.032094038  nElectrons: 704.000000  magneticMoment: [ Abs: 0.52735  Tot: +0.49347 ]
	SubspaceRotationAdjust: set factor to 0.406
ElecMinimize: Iter:  42  G: -2862.616963400061195  |grad|_K:  1.229e-07  alpha:  1.849e-01  linmin: -3.752e-08  t[s]:   9892.68
	FillingsUpdate:  mu: -0.032139028  nElectrons: 704.000000  magneticMoment: [ Abs: 0.54956  Tot: +0.51408 ]
	SubspaceRotationAdjust: set factor to 0.6
ElecMinimize: Iter:  43  G: -2862.616964035486035  |grad|_K:  1.026e-07  alpha:  1.560e-01  linmin: -1.775e-08  t[s]:  10040.13
	FillingsUpdate:  mu: -0.032181213  nElectrons: 704.000000  magneticMoment: [ Abs: 0.56987  Tot: +0.53294 ]
	SubspaceRotationAdjust: set factor to 0.616
ElecMinimize: Iter:  44  G: -2862.616964507951252  |grad|_K:  1.129e-07  alpha:  1.666e-01  linmin: -1.576e-08  t[s]:  10187.42
	FillingsUpdate:  mu: -0.032184808  nElectrons: 704.000000  magneticMoment: [ Abs: 0.61812  Tot: +0.57791 ]
	SubspaceRotationAdjust: set factor to 0.485
ElecMinimize: Iter:  45  G: -2862.616965417370011  |grad|_K:  1.586e-07  alpha:  2.648e-01  linmin:  4.127e-08  t[s]:  10335.05
	FillingsUpdate:  mu: -0.032120872  nElectrons: 704.000000  magneticMoment: [ Abs: 0.68097  Tot: +0.63657 ]
	SubspaceRotationAdjust: set factor to 0.592
ElecMinimize: Iter:  46  G: -2862.616966487284571  |grad|_K:  1.513e-07  alpha:  1.579e-01  linmin:  2.112e-08  t[s]:  10482.10
	FillingsUpdate:  mu: -0.032044107  nElectrons: 704.000000  magneticMoment: [ Abs: 0.78650  Tot: +0.73517 ]
	SubspaceRotationAdjust: set factor to 0.482
ElecMinimize: Iter:  47  G: -2862.616968129885663  |grad|_K:  2.562e-07  alpha:  2.667e-01  linmin:  1.005e-07  t[s]:  10629.46
	FillingsUpdate:  mu: -0.032041796  nElectrons: 704.000000  magneticMoment: [ Abs: 1.25984  Tot: +1.17811 ]
	SubspaceRotationAdjust: set factor to 0.54
ElecMinimize: Iter:  48  G: -2862.616975061489939  |grad|_K:  4.784e-07  alpha:  4.009e-01  linmin:  1.941e-06  t[s]:  10777.55
	FillingsUpdate:  mu: -0.032041799  nElectrons: 704.000000  magneticMoment: [ Abs: 1.25986  Tot: +1.17812 ]
	SubspaceRotationAdjust: set factor to 0.568
ElecMinimize: Iter:  49  G: -2862.616975061826906  |grad|_K:  4.908e-07  alpha:  3.397e-06  linmin: -2.009e-05  t[s]:  10925.27
ElecMinimize: 	Wrong curvature in test step, increasing alphaT to 1.019011e-05.
	FillingsUpdate:  mu: -0.032041806  nElectrons: 704.000000  magneticMoment: [ Abs: 1.25987  Tot: +1.17813 ]
	SubspaceRotationAdjust: set factor to 0.582
ElecMinimize: Iter:  50  G: -2862.616975062705478  |grad|_K:  4.969e-07  alpha: -4.958e-05  linmin: -4.487e-05  t[s]:  11059.60
ElecMinimize: Converged (|Delta G|<1.000000e-08 for 2 iters).
Setting wave functions to eigenvectors of Hamiltonian
Vacuum energy after initial minimize, F = -2862.616975062705478

Shifting auxilliary hamiltonian by -0.139210 to set nElectrons=704.000000
	Linear fluid (dielectric constant: 78.4, screening length: 5.74355 Bohr) occupying 0.697565 of unit cell:	Completed after 14 iterations at t[s]:  11089.47

-------- Electronic minimization -----------
	Linear fluid (dielectric constant: 78.4, screening length: 5.74355 Bohr) occupying 0.697565 of unit cell:	Completed after 0 iterations at t[s]:  11121.32
	FillingsUpdate:  mu: -0.171251800  nElectrons: 704.000000  magneticMoment: [ Abs: 1.38671  Tot: +1.30000 ]
ElecMinimize: Iter:   0  G: -2862.601991781659308  |grad|_K:  3.140e-05  alpha:  1.000e+00
	Linear fluid (dielectric constant: 78.4, screening length: 5.74355 Bohr) occupying 0.712928 of unit cell:	Completed after 13 iterations at t[s]:  11237.60
	Linear fluid (dielectric constant: 78.4, screening length: 5.74355 Bohr) occupying 0.697833 of unit cell:	Completed after 13 iterations at t[s]:  11286.20
	FillingsUpdate:  mu: -0.171251800  nElectrons: 703.364433  magneticMoment: [ Abs: 1.38984  Tot: +1.30312 ]
	SubspaceRotationAdjust: set factor to 0.286
ElecMinimize: Iter:   1  G: -2862.606589828119013  |grad|_K:  1.753e-05  alpha:  2.525e-02  linmin:  2.994e-02  t[s]:  11349.37
	Linear fluid (dielectric constant: 78.4, screening length: 5.74355 Bohr) occupying 0.698057 of unit cell:	Completed after 9 iterations at t[s]:  11398.16
ElecMinimize: 	Predicted alpha/alphaT>3.000000, increasing alphaT to 7.575056e-02.
	Linear fluid (dielectric constant: 78.4, screening length: 5.74355 Bohr) occupying 0.698506 of unit cell:	Completed after 10 iterations at t[s]:  11444.74
	Linear fluid (dielectric constant: 78.4, screening length: 5.74355 Bohr) occupying 0.698613 of unit cell:	Completed after 9 iterations at t[s]:  11491.83
	FillingsUpdate:  mu: -0.171251800  nElectrons: 703.508443  magneticMoment: [ Abs: 1.40062  Tot: +1.31294 ]
	SubspaceRotationAdjust: set factor to 0.13
ElecMinimize: Iter:   2  G: -2862.611585027385900  |grad|_K:  1.034e-05  alpha:  8.786e-02  linmin:  1.480e-04  t[s]:  11554.26
	Linear fluid (dielectric constant: 78.4, screening length: 5.74355 Bohr) occupying 0.699242 of unit cell:	Completed after 10 iterations at t[s]:  11603.02
	Linear fluid (dielectric constant: 78.4, screening length: 5.74355 Bohr) occupying 0.699206 of unit cell:	Completed after 6 iterations at t[s]:  11650.30
	FillingsUpdate:  mu: -0.171251800  nElectrons: 703.093647  magneticMoment: [ Abs: 1.40927  Tot: +1.32099 ]
	SubspaceRotationAdjust: set factor to 0.0621
	SubspaceRotationAdjust: resetting CG because factor has changed by 0.106674
	Linear fluid (dielectric constant: 78.4, screening length: 5.74355 Bohr) occupying 0.699206 of unit cell:	Completed after 0 iterations at t[s]:  11735.27
ElecMinimize: 	State modified externally: resetting search direction.
ElecMinimize: Iter:   3  G: -2862.613966439237174  |grad|_K:  4.403e-06  alpha:  8.292e-02
	Linear fluid (dielectric constant: 78.4, screening length: 5.74355 Bohr) occupying 0.699278 of unit cell:	Completed after 9 iterations at t[s]:  11843.92
ElecMinimize: 	Predicted alpha/alphaT>3.000000, increasing alphaT to 2.487532e-01.
	Linear fluid (dielectric constant: 78.4, screening length: 5.74355 Bohr) occupying 0.699423 of unit cell:	Completed after 8 iterations at t[s]:  11890.53
	Linear fluid (dielectric constant: 78.4, screening length: 5.74355 Bohr) occupying 0.699441 of unit cell:	Completed after 6 iterations at t[s]:  11936.63
	FillingsUpdate:  mu: -0.171251800  nElectrons: 703.268793  magneticMoment: [ Abs: 1.41352  Tot: +1.32423 ]
	SubspaceRotationAdjust: set factor to 0.0391
ElecMinimize: Iter:   4  G: -2862.615373977390391  |grad|_K:  3.591e-06  alpha:  2.696e-01  linmin:  1.694e-05  t[s]:  11998.25
	Linear fluid (dielectric constant: 78.4, screening length: 5.74355 Bohr) occupying 0.699889 of unit cell:	Completed after 9 iterations at t[s]:  12046.92
ElecMinimize: 	Predicted alpha/alphaT>3.000000, increasing alphaT to 8.088806e-01.
	Linear fluid (dielectric constant: 78.4, screening length: 5.74355 Bohr) occupying 0.700797 of unit cell:	Completed after 11 iterations at t[s]:  12093.66
	Linear fluid (dielectric constant: 78.4, screening length: 5.74355 Bohr) occupying 0.702349 of unit cell:	Completed after 10 iterations at t[s]:  12140.78
	FillingsUpdate:  mu: -0.171251800  nElectrons: 702.738309  magneticMoment: [ Abs: 1.45881  Tot: +1.36027 ]
	SubspaceRotationAdjust: set factor to 0.0412
ElecMinimize: Iter:   5  G: -2862.621398197824874  |grad|_K:  5.478e-06  alpha:  1.711e+00  linmin: -4.048e-04  t[s]:  12203.11
	Linear fluid (dielectric constant: 78.4, screening length: 5.74355 Bohr) occupying 0.710770 of unit cell:	Completed after 12 iterations at t[s]:  12251.98
	Linear fluid (dielectric constant: 78.4, screening length: 5.74355 Bohr) occupying 0.707317 of unit cell:	Completed after 10 iterations at t[s]:  12300.30
	FillingsUpdate:  mu: -0.171251800  nElectrons: 702.020866  magneticMoment: [ Abs: 1.52678  Tot: +1.41730 ]
	SubspaceRotationAdjust: set factor to 0.0458
ElecMinimize: Iter:   6  G: -2862.629577748217798  |grad|_K:  6.993e-06  alpha:  1.015e+00  linmin:  6.210e-05  t[s]:  12362.33
	Linear fluid (dielectric constant: 78.4, screening length: 5.74355 Bohr) occupying 0.716089 of unit cell:	Completed after 12 iterations at t[s]:  12411.32
	Linear fluid (dielectric constant: 78.4, screening length: 5.74355 Bohr) occupying 0.717748 of unit cell:	Completed after 12 iterations at t[s]:  12459.32
	FillingsUpdate:  mu: -0.171251800  nElectrons: 700.703081  magneticMoment: [ Abs: 1.65755  Tot: +1.53346 ]
	SubspaceRotationAdjust: set factor to 0.0472
ElecMinimize: Iter:   7  G: -2862.645756368169714  |grad|_K:  9.394e-06  alpha:  1.220e+00  linmin: -3.093e-04  t[s]:  12522.16
	Linear fluid (dielectric constant: 78.4, screening length: 5.74355 Bohr) occupying 0.732248 of unit cell:	Completed after 13 iterations at t[s]:  12570.90
	Linear fluid (dielectric constant: 78.4, screening length: 5.74355 Bohr) occupying 0.743972 of unit cell:	Completed after 15 iterations at t[s]:  12619.47
	FillingsUpdate:  mu: -0.171251800  nElectrons: 694.947331  magneticMoment: [ Abs: 2.01264  Tot: +1.80880 ]
	SubspaceRotationAdjust: set factor to 0.0466
ElecMinimize: Iter:   8  G: -2862.714431939448787  |grad|_K:  3.107e-05  alpha:  3.582e+00  linmin:  9.939e-04  t[s]:  12682.85
	Linear fluid (dielectric constant: 78.4, screening length: 5.74355 Bohr) occupying 0.608376 of unit cell:	Completed after 40 iterations at t[s]:  12736.07
	Linear fluid (dielectric constant: 78.4, screening length: 5.74355 Bohr) occupying 0.744899 of unit cell:	Completed after 29 iterations at t[s]:  12790.58
	FillingsUpdate:  mu: -0.171251800  nElectrons: 694.837042  magneticMoment: [ Abs: 2.03490  Tot: +1.82387 ]
	SubspaceRotationAdjust: set factor to 0.0503
ElecMinimize: Iter:   9  G: -2862.720838383700539  |grad|_K:  3.076e-05  alpha:  3.271e-02  linmin: -5.035e-04  t[s]:  12856.96
	Linear fluid (dielectric constant: 78.4, screening length: 5.74355 Bohr) occupying 0.745751 of unit cell:	Completed after 12 iterations at t[s]:  12905.66
ElecMinimize: 	Predicted alpha/alphaT>3.000000, increasing alphaT to 9.813226e-02.
	Linear fluid (dielectric constant: 78.4, screening length: 5.74355 Bohr) occupying 0.747153 of unit cell:	Completed after 13 iterations at t[s]:  12953.26
	Linear fluid (dielectric constant: 78.4, screening length: 5.74355 Bohr) occupying 0.747825 of unit cell:	Completed after 12 iterations at t[s]:  13001.49
	FillingsUpdate:  mu: -0.171251800  nElectrons: 694.957001  magneticMoment: [ Abs: 2.13287  Tot: +1.89653 ]
	SubspaceRotationAdjust: set factor to 0.048
ElecMinimize: Iter:  10  G: -2862.764437907609135  |grad|_K:  2.718e-05  alpha:  1.366e-01  linmin:  1.941e-04  t[s]:  13064.16
	Linear fluid (dielectric constant: 78.4, screening length: 5.74355 Bohr) occupying 0.749557 of unit cell:	Completed after 14 iterations at t[s]:  13113.12
	Linear fluid (dielectric constant: 78.4, screening length: 5.74355 Bohr) occupying 0.749284 of unit cell:	Completed after 12 iterations at t[s]:  13161.36
	FillingsUpdate:  mu: -0.171251800  nElectrons: 694.972598  magneticMoment: [ Abs: 2.19178  Tot: +1.94107 ]
	SubspaceRotationAdjust: set factor to 0.0445
ElecMinimize: Iter:  11  G: -2862.785112696971737  |grad|_K:  2.888e-05  alpha:  1.122e-01  linmin:  1.112e-05  t[s]:  13224.28
	Linear fluid (dielectric constant: 78.4, screening length: 5.74355 Bohr) occupying 0.750736 of unit cell:	Completed after 14 iterations at t[s]:  13273.27
	Linear fluid (dielectric constant: 78.4, screening length: 5.74355 Bohr) occupying 0.750835 of unit cell:	Completed after 10 iterations at t[s]:  13321.43
	FillingsUpdate:  mu: -0.171251800  nElectrons: 694.654303  magneticMoment: [ Abs: 2.25102  Tot: +1.98344 ]
	SubspaceRotationAdjust: set factor to 0.0383
ElecMinimize: Iter:  12  G: -2862.812184008449549  |grad|_K:  3.026e-05  alpha:  1.209e-01  linmin: -2.364e-05  t[s]:  13383.74
	Linear fluid (dielectric constant: 78.4, screening length: 5.74355 Bohr) occupying 0.752251 of unit cell:	Completed after 14 iterations at t[s]:  13432.47
	Linear fluid (dielectric constant: 78.4, screening length: 5.74355 Bohr) occupying 0.752256 of unit cell:	Completed after 0 iterations at t[s]:  13480.00
	FillingsUpdate:  mu: -0.171251800  nElectrons: 693.958513  magneticMoment: [ Abs: 2.29919  Tot: +2.01307 ]
	SubspaceRotationAdjust: set factor to 0.048
ElecMinimize: Iter:  13  G: -2862.842342029570773  |grad|_K:  2.851e-05  alpha:  1.213e-01  linmin: -5.837e-05  t[s]:  13539.90
	Linear fluid (dielectric constant: 78.4, screening length: 5.74355 Bohr) occupying 0.753271 of unit cell:	Completed after 15 iterations at t[s]:  13589.47
	Linear fluid (dielectric constant: 78.4, screening length: 5.74355 Bohr) occupying 0.753366 of unit cell:	Completed after 12 iterations at t[s]:  13638.32
	FillingsUpdate:  mu: -0.171251800  nElectrons: 693.036011  magneticMoment: [ Abs: 2.32916  Tot: +2.02432 ]
	SubspaceRotationAdjust: set factor to 0.0626
ElecMinimize: Iter:  14  G: -2862.872821852052766  |grad|_K:  2.601e-05  alpha:  1.347e-01  linmin: -9.319e-05  t[s]:  13700.52
	Linear fluid (dielectric constant: 78.4, screening length: 5.74355 Bohr) occupying 0.754142 of unit cell:	Completed after 15 iterations at t[s]:  13750.26
	Linear fluid (dielectric constant: 78.4, screening length: 5.74355 Bohr) occupying 0.754205 of unit cell:	Completed after 12 iterations at t[s]:  13798.87
	FillingsUpdate:  mu: -0.171251800  nElectrons: 692.040834  magneticMoment: [ Abs: 2.33886  Tot: +2.01650 ]
	SubspaceRotationAdjust: set factor to 0.0702
ElecMinimize: Iter:  15  G: -2862.901119302906864  |grad|_K:  2.421e-05  alpha:  1.476e-01  linmin: -1.021e-04  t[s]:  13861.51
	Linear fluid (dielectric constant: 78.4, screening length: 5.74355 Bohr) occupying 0.754893 of unit cell:	Completed after 14 iterations at t[s]:  13910.40
	Linear fluid (dielectric constant: 78.4, screening length: 5.74355 Bohr) occupying 0.755079 of unit cell:	Completed after 12 iterations at t[s]:  13958.98
	FillingsUpdate:  mu: -0.171251800  nElectrons: 691.096711  magneticMoment: [ Abs: 2.33700  Tot: +1.99523 ]
	SubspaceRotationAdjust: set factor to 0.086
ElecMinimize: Iter:  16  G: -2862.933796063613954  |grad|_K:  2.528e-05  alpha:  1.950e-01  linmin: -1.362e-04  t[s]:  14021.59
	Linear fluid (dielectric constant: 78.4, screening length: 5.74355 Bohr) occupying 0.755993 of unit cell:	Completed after 14 iterations at t[s]:  14070.50
	Linear fluid (dielectric constant: 78.4, screening length: 5.74355 Bohr) occupying 0.755989 of unit cell:	Completed after 2 iterations at t[s]:  14118.07
	FillingsUpdate:  mu: -0.171251800  nElectrons: 690.706734  magneticMoment: [ Abs: 2.33702  Tot: +1.97721 ]
	SubspaceRotationAdjust: set factor to 0.118
ElecMinimize: Iter:  17  G: -2862.968895717425767  |grad|_K:  2.268e-05  alpha:  1.940e-01  linmin: -6.247e-06  t[s]:  14178.59
	Linear fluid (dielectric constant: 78.4, screening length: 5.74355 Bohr) occupying 0.756816 of unit cell:	Completed after 15 iterations at t[s]:  14227.59
	Linear fluid (dielectric constant: 78.4, screening length: 5.74355 Bohr) occupying 0.756644 of unit cell:	Completed after 13 iterations at t[s]:  14276.29
	FillingsUpdate:  mu: -0.171251800  nElectrons: 690.790600  magneticMoment: [ Abs: 2.33365  Tot: +1.96519 ]
	SubspaceRotationAdjust: set factor to 0.129
ElecMinimize: Iter:  18  G: -2862.989874725682057  |grad|_K:  2.035e-05  alpha:  1.503e-01  linmin:  9.683e-06  t[s]:  14339.36
	Linear fluid (dielectric constant: 78.4, screening length: 5.74355 Bohr) occupying 0.757306 of unit cell:	Completed after 15 iterations at t[s]:  14388.51
	Linear fluid (dielectric constant: 78.4, screening length: 5.74355 Bohr) occupying 0.757373 of unit cell:	Completed after 12 iterations at t[s]:  14437.02
	FillingsUpdate:  mu: -0.171251800  nElectrons: 690.658057  magneticMoment: [ Abs: 2.30588  Tot: +1.93106 ]
	SubspaceRotationAdjust: set factor to 0.152
ElecMinimize: Iter:  19  G: -2863.008400105710734  |grad|_K:  2.169e-05  alpha:  1.668e-01  linmin:  1.716e-05  t[s]:  14500.14
	Linear fluid (dielectric constant: 78.4, screening length: 5.74355 Bohr) occupying 0.758230 of unit cell:	Completed after 16 iterations at t[s]:  14550.12
	Linear fluid (dielectric constant: 78.4, screening length: 5.74355 Bohr) occupying 0.758104 of unit cell:	Completed after 12 iterations at t[s]:  14598.99
	FillingsUpdate:  mu: -0.171251800  nElectrons: 690.021191  magneticMoment: [ Abs: 2.25169  Tot: +1.87072 ]
	SubspaceRotationAdjust: set factor to 0.208
ElecMinimize: Iter:  20  G: -2863.025865796594189  |grad|_K:  1.868e-05  alpha:  1.394e-01  linmin: -3.441e-05  t[s]:  14661.50
	Linear fluid (dielectric constant: 78.4, screening length: 5.74355 Bohr) occupying 0.758661 of unit cell:	Completed after 14 iterations at t[s]:  14710.66
	Linear fluid (dielectric constant: 78.4, screening length: 5.74355 Bohr) occupying 0.758572 of unit cell:	Completed after 12 iterations at t[s]:  14759.11
	FillingsUpdate:  mu: -0.171251800  nElectrons: 689.338591  magneticMoment: [ Abs: 2.20040  Tot: +1.81558 ]
	SubspaceRotationAdjust: set factor to 0.21
ElecMinimize: Iter:  21  G: -2863.036716778768550  |grad|_K:  1.549e-05  alpha:  1.151e-01  linmin: -4.168e-05  t[s]:  14822.35
	Linear fluid (dielectric constant: 78.4, screening length: 5.74355 Bohr) occupying 0.758903 of unit cell:	Completed after 14 iterations at t[s]:  14871.30
	Linear fluid (dielectric constant: 78.4, screening length: 5.74355 Bohr) occupying 0.759053 of unit cell:	Completed after 12 iterations at t[s]:  14919.74
	FillingsUpdate:  mu: -0.171251800  nElectrons: 688.933694  magneticMoment: [ Abs: 2.13839  Tot: +1.75157 ]
	SubspaceRotationAdjust: set factor to 0.182
ElecMinimize: Iter:  22  G: -2863.048068287085698  |grad|_K:  1.701e-05  alpha:  1.728e-01  linmin: -6.529e-05  t[s]:  14982.90
	Linear fluid (dielectric constant: 78.4, screening length: 5.74355 Bohr) occupying 0.759524 of unit cell:	Completed after 14 iterations at t[s]:  15031.68
	Linear fluid (dielectric constant: 78.4, screening length: 5.74355 Bohr) occupying 0.759407 of unit cell:	Completed after 12 iterations at t[s]:  15080.41
	FillingsUpdate:  mu: -0.171251800  nElectrons: 689.196232  magneticMoment: [ Abs: 2.09023  Tot: +1.70424 ]
	SubspaceRotationAdjust: set factor to 0.249
ElecMinimize: Iter:  23  G: -2863.058031000170558  |grad|_K:  1.284e-05  alpha:  1.255e-01  linmin: -7.804e-07  t[s]:  15143.24
	Linear fluid (dielectric constant: 78.4, screening length: 5.74355 Bohr) occupying 0.759584 of unit cell:	Completed after 14 iterations at t[s]:  15192.74
	Linear fluid (dielectric constant: 78.4, screening length: 5.74355 Bohr) occupying 0.759625 of unit cell:	Completed after 12 iterations at t[s]:  15241.53
	FillingsUpdate:  mu: -0.171251800  nElectrons: 689.542428  magneticMoment: [ Abs: 2.04513  Tot: +1.66153 ]
	SubspaceRotationAdjust: set factor to 0.245
ElecMinimize: Iter:  24  G: -2863.064984698840362  |grad|_K:  1.390e-05  alpha:  1.567e-01  linmin:  7.713e-06  t[s]:  15304.67
	Linear fluid (dielectric constant: 78.4, screening length: 5.74355 Bohr) occupying 0.759854 of unit cell:	Completed after 14 iterations at t[s]:  15353.54
	Linear fluid (dielectric constant: 78.4, screening length: 5.74355 Bohr) occupying 0.759821 of unit cell:	Completed after 12 iterations at t[s]:  15401.97
	FillingsUpdate:  mu: -0.171251800  nElectrons: 689.444206  magneticMoment: [ Abs: 1.97015  Tot: +1.58975 ]
	SubspaceRotationAdjust: set factor to 0.34
ElecMinimize: Iter:  25  G: -2863.071828363075838  |grad|_K:  1.034e-05  alpha:  1.323e-01  linmin: -4.566e-06  t[s]:  15465.12
	Linear fluid (dielectric constant: 78.4, screening length: 5.74355 Bohr) occupying 0.759908 of unit cell:	Completed after 15 iterations at t[s]:  15513.99
	Linear fluid (dielectric constant: 78.4, screening length: 5.74355 Bohr) occupying 0.759904 of unit cell:	Completed after 10 iterations at t[s]:  15562.50
	FillingsUpdate:  mu: -0.171251800  nElectrons: 689.164581  magneticMoment: [ Abs: 1.90513  Tot: +1.52841 ]
	SubspaceRotationAdjust: set factor to 0.325
ElecMinimize: Iter:  26  G: -2863.075480109852833  |grad|_K:  1.076e-05  alpha:  1.267e-01  linmin: -8.658e-06  t[s]:  15625.01
	Linear fluid (dielectric constant: 78.4, screening length: 5.74355 Bohr) occupying 0.759960 of unit cell:	Completed after 12 iterations at t[s]:  15674.14
	Linear fluid (dielectric constant: 78.4, screening length: 5.74355 Bohr) occupying 0.759972 of unit cell:	Completed after 10 iterations at t[s]:  15721.62
	FillingsUpdate:  mu: -0.171251800  nElectrons: 689.160558  magneticMoment: [ Abs: 1.79450  Tot: +1.42794 ]
	SubspaceRotationAdjust: set factor to 0.461
	SubspaceRotationAdjust: resetting CG because factor has changed by 7.41787
	Linear fluid (dielectric constant: 78.4, screening length: 5.74355 Bohr) occupying 0.759972 of unit cell:	Completed after 0 iterations at t[s]:  15808.24
ElecMinimize: 	State modified externally: resetting search direction.
ElecMinimize: Iter:  27  G: -2863.080372217069453  |grad|_K:  8.787e-06  alpha:  1.559e-01
	Linear fluid (dielectric constant: 78.4, screening length: 5.74355 Bohr) occupying 0.759962 of unit cell:	Completed after 14 iterations at t[s]:  15917.53
	Linear fluid (dielectric constant: 78.4, screening length: 5.74355 Bohr) occupying 0.759958 of unit cell:	Completed after 13 iterations at t[s]:  15965.92
	FillingsUpdate:  mu: -0.171251800  nElectrons: 689.370236  magneticMoment: [ Abs: 1.74253  Tot: +1.38422 ]
	SubspaceRotationAdjust: set factor to 0.258
ElecMinimize: Iter:  28  G: -2863.084562773828111  |grad|_K:  1.189e-05  alpha:  2.018e-01  linmin:  1.653e-05  t[s]:  16028.73
	Linear fluid (dielectric constant: 78.4, screening length: 5.74355 Bohr) occupying 0.759990 of unit cell:	Completed after 14 iterations at t[s]:  16077.71
	Linear fluid (dielectric constant: 78.4, screening length: 5.74355 Bohr) occupying 0.759972 of unit cell:	Completed after 12 iterations at t[s]:  16126.35
	FillingsUpdate:  mu: -0.171251800  nElectrons: 689.025526  magneticMoment: [ Abs: 1.67294  Tot: +1.32253 ]
	SubspaceRotationAdjust: set factor to 0.192
ElecMinimize: Iter:  29  G: -2863.087609136023275  |grad|_K:  4.291e-06  alpha:  8.126e-02  linmin:  2.200e-05  t[s]:  16189.44
	Linear fluid (dielectric constant: 78.4, screening length: 5.74355 Bohr) occupying 0.759970 of unit cell:	Completed after 7 iterations at t[s]:  16237.69
ElecMinimize: 	Predicted alpha/alphaT>3.000000, increasing alphaT to 2.437721e-01.
	Linear fluid (dielectric constant: 78.4, screening length: 5.74355 Bohr) occupying 0.759964 of unit cell:	Completed after 9 iterations at t[s]:  16283.80
	Linear fluid (dielectric constant: 78.4, screening length: 5.74355 Bohr) occupying 0.759953 of unit cell:	Completed after 12 iterations at t[s]:  16331.42
	FillingsUpdate:  mu: -0.171251800  nElectrons: 689.006877  magneticMoment: [ Abs: 1.54869  Tot: +1.21800 ]
	SubspaceRotationAdjust: set factor to 0.258
ElecMinimize: Iter:  30  G: -2863.090178874821504  |grad|_K:  3.390e-06  alpha:  5.238e-01  linmin:  8.601e-06  t[s]:  16394.62
	Linear fluid (dielectric constant: 78.4, screening length: 5.74355 Bohr) occupying 0.759917 of unit cell:	Completed after 14 iterations at t[s]:  16443.48
	Linear fluid (dielectric constant: 78.4, screening length: 5.74355 Bohr) occupying 0.759933 of unit cell:	Completed after 12 iterations at t[s]:  16491.99
	FillingsUpdate:  mu: -0.171251800  nElectrons: 689.172500  magneticMoment: [ Abs: 1.47688  Tot: +1.15947 ]
	SubspaceRotationAdjust: set factor to 0.169
ElecMinimize: Iter:  31  G: -2863.091115524507586  |grad|_K:  4.023e-06  alpha:  3.004e-01  linmin: -7.083e-06  t[s]:  16554.71
	Linear fluid (dielectric constant: 78.4, screening length: 5.74355 Bohr) occupying 0.759918 of unit cell:	Completed after 15 iterations at t[s]:  16604.05
	Linear fluid (dielectric constant: 78.4, screening length: 5.74355 Bohr) occupying 0.759925 of unit cell:	Completed after 12 iterations at t[s]:  16652.73
	FillingsUpdate:  mu: -0.171251800  nElectrons: 689.064877  magneticMoment: [ Abs: 1.39202  Tot: +1.08887 ]
	SubspaceRotationAdjust: set factor to 0.12
ElecMinimize: Iter:  32  G: -2863.091869772556493  |grad|_K:  1.998e-06  alpha:  1.734e-01  linmin:  3.501e-06  t[s]:  16715.64
	Linear fluid (dielectric constant: 78.4, screening length: 5.74355 Bohr) occupying 0.759922 of unit cell:	Completed after 8 iterations at t[s]:  16764.62
ElecMinimize: 	Predicted alpha/alphaT>3.000000, increasing alphaT to 5.201839e-01.
	Linear fluid (dielectric constant: 78.4, screening length: 5.74355 Bohr) occupying 0.759917 of unit cell:	Completed after 10 iterations at t[s]:  16811.10
	Linear fluid (dielectric constant: 78.4, screening length: 5.74355 Bohr) occupying 0.759914 of unit cell:	Completed after 9 iterations at t[s]:  16858.36
	FillingsUpdate:  mu: -0.171251800  nElectrons: 689.113420  magneticMoment: [ Abs: 1.24388  Tot: +0.96861 ]
	SubspaceRotationAdjust: set factor to 0.132
ElecMinimize: Iter:  33  G: -2863.092666381038725  |grad|_K:  1.683e-06  alpha:  7.492e-01  linmin:  2.003e-05  t[s]:  16920.42
	Linear fluid (dielectric constant: 78.4, screening length: 5.74355 Bohr) occupying 0.759915 of unit cell:	Completed after 10 iterations at t[s]:  16968.99
	Linear fluid (dielectric constant: 78.4, screening length: 5.74355 Bohr) occupying 0.759915 of unit cell:	Completed after 9 iterations at t[s]:  17016.37
	FillingsUpdate:  mu: -0.171251800  nElectrons: 689.095782  magneticMoment: [ Abs: 1.13485  Tot: +0.88088 ]
	SubspaceRotationAdjust: set factor to 0.148
ElecMinimize: Iter:  34  G: -2863.093085204551699  |grad|_K:  1.208e-06  alpha:  5.609e-01  linmin:  9.423e-07  t[s]:  17078.48
	Linear fluid (dielectric constant: 78.4, screening length: 5.74355 Bohr) occupying 0.759921 of unit cell:	Completed after 10 iterations at t[s]:  17127.21
	Linear fluid (dielectric constant: 78.4, screening length: 5.74355 Bohr) occupying 0.759921 of unit cell:	Completed after 3 iterations at t[s]:  17174.38
	FillingsUpdate:  mu: -0.171251800  nElectrons: 689.115078  magneticMoment: [ Abs: 1.05879  Tot: +0.82009 ]
	SubspaceRotationAdjust: set factor to 0.149
[...]
	SubspaceRotationAdjust: set factor to 0.0662
ElecMinimize: Iter:  14  G: -2863.105270264469709  |grad|_K:  2.838e-08  alpha:  1.493e-01  linmin:  1.489e-03  t[s]:  47316.97
	Linear fluid (dielectric constant: 78.4, screening length: 5.74355 Bohr) occupying 0.760941 of unit cell:	Completed after 0 iterations at t[s]:  47364.44
	Linear fluid (dielectric constant: 78.4, screening length: 5.74355 Bohr) occupying 0.760941 of unit cell:	Completed after 0 iterations at t[s]:  47408.43
	FillingsUpdate:  mu: -0.171251800  nElectrons: 689.197128  magneticMoment: [ Abs: 0.00004  Tot: -0.00003 ]
	SubspaceRotationAdjust: set factor to 0.098
ElecMinimize: Iter:  15  G: -2863.105270267551532  |grad|_K:  2.503e-08  alpha:  7.748e-02  linmin: -1.564e-06  t[s]:  47468.49
	Linear fluid (dielectric constant: 78.4, screening length: 5.74355 Bohr) occupying 0.760941 of unit cell:	Completed after 0 iterations at t[s]:  47516.29
	Linear fluid (dielectric constant: 78.4, screening length: 5.74355 Bohr) occupying 0.760941 of unit cell:	Completed after 0 iterations at t[s]:  47560.51
	FillingsUpdate:  mu: -0.171251800  nElectrons: 689.197116  magneticMoment: [ Abs: 0.00004  Tot: -0.00002 ]
	SubspaceRotationAdjust: set factor to 0.0807
ElecMinimize: Iter:  16  G: -2863.105270305805789  |grad|_K:  2.027e-08  alpha:  2.270e-01  linmin:  2.488e-06  t[s]:  47620.58
	Linear fluid (dielectric constant: 78.4, screening length: 5.74355 Bohr) occupying 0.760940 of unit cell:	Completed after 2 iterations at t[s]:  47668.22
	Linear fluid (dielectric constant: 78.4, screening length: 5.74355 Bohr) occupying 0.760941 of unit cell:	Completed after 0 iterations at t[s]:  47713.17
ElecMinimize: 	Step increased G by 4.641379e-08, reducing alpha to 4.068600e-03.
	Linear fluid (dielectric constant: 78.4, screening length: 5.74355 Bohr) occupying 0.760941 of unit cell:	Completed after 0 iterations at t[s]:  47809.91
ElecMinimize: 	Step increased G by 4.109006e-08, reducing alpha to 4.068600e-04.
	Linear fluid (dielectric constant: 78.4, screening length: 5.74355 Bohr) occupying 0.760941 of unit cell:	Completed after 0 iterations at t[s]:  47907.19
ElecMinimize: 	Step increased G by 4.059757e-08, reducing alpha to 4.068600e-05.
ElecMinimize: 	Step failed to reduce G after 3 attempts. Quitting step.
ElecMinimize: 	Undoing step.
	Linear fluid (dielectric constant: 78.4, screening length: 5.74355 Bohr) occupying 0.760941 of unit cell:	Completed after 0 iterations at t[s]:  48005.11
ElecMinimize: 	Step failed: resetting search direction.
	FillingsUpdate:  mu: -0.171251800  nElectrons: 689.197118  magneticMoment: [ Abs: 0.00004  Tot: -0.00002 ]
	SubspaceRotationAdjust: set factor to 0.0696
ElecMinimize: Iter:  17  G: -2863.105270265201852  |grad|_K:  2.050e-08  alpha:  4.069e-05
	Linear fluid (dielectric constant: 78.4, screening length: 5.74355 Bohr) occupying 0.760941 of unit cell:	Completed after 0 iterations at t[s]:  48113.15
	Linear fluid (dielectric constant: 78.4, screening length: 5.74355 Bohr) occupying 0.760941 of unit cell:	Completed after 2 iterations at t[s]:  48157.36
ElecMinimize: 	Step increased G by 2.335810e-08, reducing alpha to 5.230639e-02.
	Linear fluid (dielectric constant: 78.4, screening length: 5.74355 Bohr) occupying 0.760941 of unit cell:	Completed after 0 iterations at t[s]:  48255.18
	FillingsUpdate:  mu: -0.171251800  nElectrons: 689.197056  magneticMoment: [ Abs: 0.00003  Tot: -0.00002 ]
	SubspaceRotationAdjust: set factor to 0.0599
ElecMinimize: Iter:  18  G: -2863.105270283915161  |grad|_K:  1.492e-08  alpha:  5.231e-02  linmin: -4.829e-04  t[s]:  48315.60
	Linear fluid (dielectric constant: 78.4, screening length: 5.74355 Bohr) occupying 0.760941 of unit cell:	Completed after 0 iterations at t[s]:  48363.16
ElecMinimize: 	Predicted alpha/alphaT>3.000000, increasing alphaT to 1.569192e-01.
	Linear fluid (dielectric constant: 78.4, screening length: 5.74355 Bohr) occupying 0.760941 of unit cell:	Completed after 0 iterations at t[s]:  48407.01
	Linear fluid (dielectric constant: 78.4, screening length: 5.74355 Bohr) occupying 0.760941 of unit cell:	Completed after 0 iterations at t[s]:  48451.12
	FillingsUpdate:  mu: -0.171251800  nElectrons: 689.197730  magneticMoment: [ Abs: 0.00003  Tot: -0.00002 ]
	SubspaceRotationAdjust: set factor to 0.0858
ElecMinimize: Iter:  19  G: -2863.105270302006829  |grad|_K:  1.488e-08  alpha:  4.595e-01  linmin:  1.294e-04  t[s]:  48512.01
	Linear fluid (dielectric constant: 78.4, screening length: 5.74355 Bohr) occupying 0.760941 of unit cell:	Completed after 2 iterations at t[s]:  48560.18
	Linear fluid (dielectric constant: 78.4, screening length: 5.74355 Bohr) occupying 0.760941 of unit cell:	Completed after 0 iterations at t[s]:  48605.13
ElecMinimize: 	Step increased G by 6.392838e-09, reducing alpha to 1.240207e-02.
	Linear fluid (dielectric constant: 78.4, screening length: 5.74355 Bohr) occupying 0.760941 of unit cell:	Completed after 0 iterations at t[s]:  48702.42
	FillingsUpdate:  mu: -0.171251800  nElectrons: 689.197766  magneticMoment: [ Abs: 0.00003  Tot: -0.00002 ]
	SubspaceRotationAdjust: set factor to 0.0696
ElecMinimize: Iter:  20  G: -2863.105270304380156  |grad|_K:  1.965e-08  alpha:  1.240e-02  linmin:  1.063e-03  t[s]:  48763.08
	Linear fluid (dielectric constant: 78.4, screening length: 5.74355 Bohr) occupying 0.760941 of unit cell:	Completed after 0 iterations at t[s]:  48810.81
ElecMinimize: 	Predicted alpha/alphaT>3.000000, increasing alphaT to 3.720622e-02.
	Linear fluid (dielectric constant: 78.4, screening length: 5.74355 Bohr) occupying 0.760941 of unit cell:	Completed after 0 iterations at t[s]:  48854.54
ElecMinimize: 	Predicted alpha/alphaT>3.000000, increasing alphaT to 1.116187e-01.
	Linear fluid (dielectric constant: 78.4, screening length: 5.74355 Bohr) occupying 0.760941 of unit cell:	Completed after 0 iterations at t[s]:  48897.91
	Linear fluid (dielectric constant: 78.4, screening length: 5.74355 Bohr) occupying 0.760941 of unit cell:	Completed after 0 iterations at t[s]:  48942.61
	FillingsUpdate:  mu: -0.171251800  nElectrons: 689.197925  magneticMoment: [ Abs: 0.00003  Tot: -0.00002 ]
	SubspaceRotationAdjust: set factor to 0.0517
ElecMinimize: Iter:  21  G: -2863.105270309602020  |grad|_K:  1.695e-08  alpha:  1.229e-01  linmin:  8.477e-06  t[s]:  49002.46
ElecMinimize: Converged (|Delta G|<1.000000e-08 for 2 iters).
Setting wave functions to eigenvectors of Hamiltonian

# Ionic positions in lattice coordinates:
ion C   0.166666667591666   0.083333332433333   0.567511095213297 1
ion C   0.083333334258333   0.166666665766666   0.432490177794549 1
ion C   0.416666667591666   0.083333332433333   0.567511095213297 1
ion C   0.333333334258333   0.166666665766666   0.432490177794549 1
ion C   0.666666667591666   0.083333332433333   0.567511095213297 1
ion C   0.583333334258333   0.166666665766666   0.432490177794549 1
ion C   0.916666667591666   0.083333332433333   0.567511095213297 1
ion C   0.833333334258333   0.166666665766666   0.432490177794549 1
ion C   0.166666667591666   0.333333332433333   0.567511095213297 1
ion C   0.083333334258333   0.416666665766666   0.432490177794549 1
ion C   0.416666667591666   0.333333332433333   0.567511095213297 1
ion C   0.333333334258333   0.416666665766666   0.432490177794549 1
ion C   0.666666667591666   0.333333332433333   0.567511095213297 1
ion C   0.583333334258333   0.416666665766666   0.432490177794549 1
ion C   0.916666667591666   0.333333332433333   0.567511095213297 1
ion C   0.833333334258333   0.416666665766666   0.432490177794549 1
ion C   0.166666667591666   0.583333332433333   0.567511095213297 1
ion C   0.083333334258333   0.666666665766666   0.432490177794549 1
ion C   0.416666667591666   0.583333332433333   0.567511095213297 1
ion C   0.333333334258333   0.666666665766666   0.432490177794549 1
ion C   0.666666667591666   0.583333332433333   0.567511095213297 1
ion C   0.583333334258333   0.666666665766666   0.432490177794549 1
ion C   0.916666667591666   0.583333332433333   0.567511095213297 1
ion C   0.833333334258333   0.666666665766666   0.432490177794549 1
ion C   0.166666667591666   0.833333332433333   0.567511095213297 1
ion C   0.083333334258333   0.916666665766666   0.432490177794549 1
ion C   0.416666667591666   0.833333332433333   0.567511095213297 1
ion C   0.333333334258333   0.916666665766666   0.432490177794549 1
ion C   0.666666667591666   0.833333332433333   0.567511095213297 1
ion C   0.583333334258333   0.916666665766666   0.432490177794549 1
ion C   0.916666667591666   0.833333332433333   0.567511095213297 1
ion C   0.833333334258333   0.916666665766666   0.432490177794549 1
ion Ti   0.000000000924999  -0.000000000900000   0.500000636503923 1
ion Ti   0.083333334258333   0.166666665766666   0.617795243311744 1
ion Ti   0.166666667591666   0.083333332433333   0.382206029696101 1
ion Ti   0.250000000924999  -0.000000000900000   0.500000636503923 1
ion Ti   0.333333334258333   0.166666665766666   0.617795243311744 1
ion Ti   0.416666667591666   0.083333332433333   0.382206029696101 1
ion Ti   0.500000000924999  -0.000000000900000   0.500000636503923 1
ion Ti   0.583333334258333   0.166666665766666   0.617795243311744 1
ion Ti   0.666666667591666   0.083333332433333   0.382206029696101 1
ion Ti   0.750000000924999  -0.000000000900000   0.500000636503923 1
ion Ti   0.833333334258333   0.166666665766666   0.617795243311744 1
ion Ti   0.916666667591666   0.083333332433333   0.382206029696101 1
ion Ti   1.000000000924999   0.249999999100000   0.500000636503923 1
ion Ti   0.083333334258333   0.416666665766666   0.617795243311744 1
ion Ti   0.166666667591666   0.333333332433333   0.382206029696101 1
ion Ti   0.250000000924999   0.249999999100000   0.500000636503923 1
ion Ti   0.333333334258333   0.416666665766666   0.617795243311744 1
ion Ti   0.416666667591666   0.333333332433333   0.382206029696101 1
ion Ti   0.500000000924999   0.249999999100000   0.500000636503923 1
ion Ti   0.583333334258333   0.416666665766666   0.617795243311744 1
ion Ti   0.666666667591666   0.333333332433333   0.382206029696101 1
ion Ti   0.750000000924999   0.249999999100000   0.500000636503923 1
ion Ti   0.833333334258333   0.416666665766666   0.617795243311744 1
ion Ti   0.916666667591666   0.333333332433333   0.382206029696101 1
ion Ti   1.000000000924999   0.499999999100000   0.500000636503923 1
ion Ti   0.083333334258333   0.666666665766666   0.617795243311744 1
ion Ti   0.166666667591666   0.583333332433333   0.382206029696101 1
ion Ti   0.250000000924999   0.499999999100000   0.500000636503923 1
ion Ti   0.333333334258333   0.666666665766666   0.617795243311744 1
ion Ti   0.416666667591666   0.583333332433333   0.382206029696101 1
ion Ti   0.500000000924999   0.499999999100000   0.500000636503923 1
ion Ti   0.583333334258333   0.666666665766666   0.617795243311744 1
ion Ti   0.666666667591666   0.583333332433333   0.382206029696101 1
ion Ti   0.750000000924999   0.499999999100000   0.500000636503923 1
ion Ti   0.833333334258333   0.666666665766666   0.617795243311744 1
ion Ti   0.916666667591666   0.583333332433333   0.382206029696101 1
ion Ti   1.000000000924999   0.749999999100000   0.500000636503923 1
ion Ti   0.083333334258333   0.916666665766666   0.617795243311744 1
ion Ti   0.166666667591666   0.833333332433333   0.382206029696101 1
ion Ti   0.250000000924999   0.749999999100000   0.500000636503923 1
ion Ti   0.333333334258333   0.916666665766666   0.617795243311744 1
ion Ti   0.416666667591666   0.833333332433333   0.382206029696101 1
ion Ti   0.500000000924999   0.749999999100000   0.500000636503923 1
ion Ti   0.583333334258333   0.916666665766666   0.617795243311744 1
ion Ti   0.666666667591666   0.833333332433333   0.382206029696101 1
ion Ti   0.750000000924999   0.749999999100000   0.500000636503923 1
ion Ti   0.833333334258333   0.916666665766666   0.617795243311744 1
ion Ti   0.916666667591666   0.833333332433333   0.382206029696101 1


# Forces in Lattice coordinates:
force C   0.000000000000000  -0.000000000000000  -0.007321762821268 1
force C   0.000000000000000   0.000000000000000   0.007321762820699 1
force C   0.000000000000000   0.000000000000000  -0.007321762821268 1
force C  -0.000000000000000   0.000000000000000   0.007321762820699 1
force C   0.000000000000000  -0.000000000000000  -0.007321762821268 1
force C  -0.000000000000000   0.000000000000000   0.007321762820699 1
force C   0.000000000000000   0.000000000000000  -0.007321762821268 1
force C   0.000000000000000   0.000000000000000   0.007321762820642 1
force C   0.000000000000000  -0.000000000000000  -0.007321762821211 1
force C   0.000000000000000  -0.000000000000000   0.007321762820699 1
force C  -0.000000000000000  -0.000000000000000  -0.007321762821268 1
force C  -0.000000000000000   0.000000000000000   0.007321762820699 1
force C  -0.000000000000000  -0.000000000000000  -0.007321762821211 1
force C  -0.000000000000000   0.000000000000000   0.007321762820699 1
force C   0.000000000000000  -0.000000000000000  -0.007321762821268 1
force C  -0.000000000000000   0.000000000000000   0.007321762820756 1
force C   0.000000000000000  -0.000000000000000  -0.007321762821268 1
force C   0.000000000000000  -0.000000000000000   0.007321762820586 1
force C   0.000000000000000  -0.000000000000000  -0.007321762821268 1
force C  -0.000000000000000   0.000000000000000   0.007321762820699 1
force C   0.000000000000000  -0.000000000000000  -0.007321762821268 1
force C  -0.000000000000000   0.000000000000000   0.007321762820756 1
force C   0.000000000000000  -0.000000000000000  -0.007321762821268 1
force C   0.000000000000000   0.000000000000000   0.007321762820699 1
force C   0.000000000000000  -0.000000000000000  -0.007321762821325 1
force C   0.000000000000000   0.000000000000000   0.007321762820756 1
force C   0.000000000000000  -0.000000000000000  -0.007321762821268 1
force C  -0.000000000000000   0.000000000000000   0.007321762820756 1
force C   0.000000000000000  -0.000000000000000  -0.007321762821324 1
force C  -0.000000000000000   0.000000000000000   0.007321762820699 1
force C   0.000000000000000  -0.000000000000000  -0.007321762821154 1
force C  -0.000000000000000   0.000000000000000   0.007321762820756 1
force Ti   0.000000000000000  -0.000000000000000  -0.000000000000000 1
force Ti   0.000000000000000  -0.000000000000000  -0.006733958731181 1
force Ti   0.000000000000000  -0.000000000000000   0.006733958732545 1
force Ti  -0.000000000000000   0.000000000000000  -0.000000000000000 1
force Ti   0.000000000000000   0.000000000000000  -0.006733958731635 1
force Ti   0.000000000000000  -0.000000000000000   0.006733958732999 1
force Ti  -0.000000000000000  -0.000000000000000  -0.000000000000000 1
force Ti  -0.000000000000000   0.000000000000000  -0.006733958731636 1
force Ti  -0.000000000000000   0.000000000000000   0.006733958732090 1
force Ti   0.000000000000000  -0.000000000000000  -0.000000000000000 1
force Ti  -0.000000000000000   0.000000000000000  -0.006733958732090 1
force Ti   0.000000000000000   0.000000000000000   0.006733958733000 1
force Ti   0.000000000000000  -0.000000000000000  -0.000000000000000 1
force Ti  -0.000000000000000   0.000000000000000  -0.006733958732545 1
force Ti  -0.000000000000000  -0.000000000000000   0.006733958732544 1
force Ti  -0.000000000000000   0.000000000000000  -0.000000000000000 1
force Ti  -0.000000000000000   0.000000000000000  -0.006733958731636 1
force Ti  -0.000000000000000   0.000000000000000   0.006733958732999 1
force Ti  -0.000000000000000  -0.000000000000000   0.000000000000000 1
force Ti   0.000000000000000   0.000000000000000  -0.006733958731180 1
force Ti   0.000000000000000  -0.000000000000000   0.006733958732544 1
force Ti   0.000000000000000  -0.000000000000000  -0.000000000000000 1
force Ti  -0.000000000000000  -0.000000000000000  -0.006733958732544 1
force Ti   0.000000000000000  -0.000000000000000   0.006733958732090 1
force Ti  -0.000000000000000   0.000000000000000  -0.000000000000000 1
force Ti   0.000000000000000   0.000000000000000  -0.006733958731635 1
force Ti   0.000000000000000  -0.000000000000000   0.006733958732545 1
force Ti   0.000000000000000   0.000000000000000  -0.000000000000000 1
force Ti  -0.000000000000000  -0.000000000000000  -0.006733958730726 1
force Ti   0.000000000000000  -0.000000000000000   0.006733958732545 1
force Ti   0.000000000000000   0.000000000000000   0.000000000000000 1
force Ti  -0.000000000000000   0.000000000000000  -0.006733958731636 1
force Ti  -0.000000000000000  -0.000000000000000   0.006733958732545 1
force Ti   0.000000000000000   0.000000000000000   0.000000000000000 1
force Ti  -0.000000000000000  -0.000000000000000  -0.006733958731180 1
force Ti  -0.000000000000000   0.000000000000000   0.006733958732999 1
force Ti   0.000000000000000   0.000000000000000   0.000000000000000 1
force Ti  -0.000000000000000  -0.000000000000000  -0.006733958731635 1
force Ti  -0.000000000000000  -0.000000000000000   0.006733958732545 1
force Ti   0.000000000000000   0.000000000000000  -0.000000000000000 1
force Ti  -0.000000000000000   0.000000000000000  -0.006733958732090 1
force Ti   0.000000000000000  -0.000000000000000   0.006733958732090 1
force Ti  -0.000000000000000  -0.000000000000000  -0.000000000000000 1
force Ti   0.000000000000000   0.000000000000000  -0.006733958731636 1
force Ti   0.000000000000000   0.000000000000000   0.006733958732545 1
force Ti  -0.000000000000000   0.000000000000000   0.000000000000000 1
force Ti  -0.000000000000000   0.000000000000000  -0.006733958731181 1
force Ti   0.000000000000000  -0.000000000000000   0.006733958732999 1

# Energy components:
   A_diel =       -7.9941832405148130
   Eewald =    27079.9822633925068658
       EH =    28718.6185278981065494
     Eloc =   -59342.8608134171299753
      Enl =      287.1212495202976243
      Exc =     -489.9392658334406860
 Exc_core =       63.9315579542150232
       KE =      709.8513238099765204
  MuShift =        0.3003388644527664
-------------------------------------
     Etot =    -2980.9890010515318863
       TS =        0.1426544196527459
-------------------------------------
        F =    -2981.1316554711847857
      muN =     -118.0263851615827662
-------------------------------------
        G =    -2863.1052703096020196

IonicMinimize: Iter:   3  G: -2863.105270309602020  |grad|_K:  9.776e-05  alpha:  1.000e+00  linmin: -9.629e-01  t[s]:  49032.16
IonicMinimize: Converged (|grad|_K<1.000000e-04).

#--- Lowdin population analysis ---
# oxidation-state C -1.093 -1.093 -1.093 -1.093 -1.093 -1.093 -1.093 -1.093 -1.093 -1.093 -1.093 -1.093 -1.093 -1.093 -1.093 -1.093 -1.093 -1.093 -1.093 -1.093 -1.093 -1.093 -1.093 -1.093 -1.093 -1.093 -1.093 -1.093 -1.093 -1.093 -1.093 -1.093
# magnetic-moments C +0.000 +0.000 +0.000 +0.000 +0.000 +0.000 +0.000 +0.000 +0.000 +0.000 +0.000 +0.000 +0.000 +0.000 +0.000 +0.000 +0.000 +0.000 +0.000 +0.000 +0.000 +0.000 +0.000 +0.000 +0.000 +0.000 +0.000 +0.000 +0.000 +0.000 +0.000 +0.000
# oxidation-state Ti +1.081 +1.195 +1.195 +1.081 +1.195 +1.195 +1.081 +1.195 +1.195 +1.081 +1.195 +1.195 +1.081 +1.195 +1.195 +1.081 +1.195 +1.195 +1.081 +1.195 +1.195 +1.081 +1.195 +1.195 +1.081 +1.195 +1.195 +1.081 +1.195 +1.195 +1.081 +1.195 +1.195 +1.081 +1.195 +1.195 +1.081 +1.195 +1.195 +1.081 +1.195 +1.195 +1.081 +1.195 +1.195 +1.081 +1.195 +1.195
# magnetic-moments Ti +0.000 -0.000 -0.000 +0.000 -0.000 -0.000 +0.000 -0.000 -0.000 +0.000 -0.000 -0.000 +0.000 -0.000 -0.000 +0.000 -0.000 -0.000 +0.000 -0.000 -0.000 +0.000 -0.000 -0.000 +0.000 -0.000 -0.000 +0.000 -0.000 -0.000 +0.000 -0.000 -0.000 +0.000 -0.000 -0.000 +0.000 -0.000 -0.000 +0.000 -0.000 -0.000 +0.000 -0.000 -0.000 +0.000 -0.000 -0.000


Dumping 'NbTe2.fillings' ... done
Dumping 'NbTe2.wfns' ... done
Dumping 'NbTe2.fluidState' ... done
Dumping 'NbTe2.ionpos' ... done
Dumping 'NbTe2.eigenvals' ... done
End date and time: Mon Jan  4 13:46:43 2021  (Duration: 0-13:37:30.57)
Done!
