
*************** JDFTx 1.5.0  ***************

Start date and time: Wed Jul  8 21:33:03 2020
Executable jdftx_gpu with command-line: -i Charged.in -o Charged.out
Running on hosts (process indices):  amax (0)
Divided in process groups (process indices):  0 (0)
gpuInit: Found compatible cuda device 0 'Tesla K80'
gpuInit: Selected device 0
Resource initialization completed at t[s]:     15.98
Run totals: 1 processes, 24 threads, 1 GPUs


Input parsed successfully to the following command list (including defaults):

basis kpoint-dependent
cache-projectors no
coords-type Lattice
core-overlap-check none
coulomb-interaction Slab 001
coulomb-truncation-embed 0 0 0.5
davidson-band-ratio 1.1
dump End State
dump-name NbTe2.$VAR
elec-cutoff 20 100
elec-eigen-algo Davidson
elec-ex-corr gga-PBE
elec-smearing Gauss 0.0073499
electronic-minimize  \
	dirUpdateScheme      FletcherReeves \
	linminMethod         DirUpdateRecommended \
	nIterations          100 \
	history              15 \
	knormThreshold       0 \
	energyDiffThreshold  1e-08 \
	nEnergyDiff          2 \
	alphaTstart          1 \
	alphaTmin            1e-10 \
	updateTestStepSize   yes \
	alphaTreduceFactor   0.1 \
	alphaTincreaseFactor 3 \
	nAlphaAdjustMax      3 \
	wolfeEnergy          0.0001 \
	wolfeGradient        0.9 \
	fdTest               no
electronic-scf  \
	nIterations	500 \
	energyDiffThreshold	1e-08 \
	residualThreshold	1e-07 \
	mixFraction	0.5 \
	qMetric	0.8 \
	history	10 \
	nEigSteps	2 \
	eigDiffThreshold	1e-08 \
	mixedVariable	Density \
	qKerker	0.8 \
	qKappa	-1 \
	verbose	no \
	mixFractionMag	1.5
exchange-regularization WignerSeitzTruncated
fluid LinearPCM 298.000000 1.013250
fluid-anion F- 1 MeanFieldLJ \
	epsBulk 1 \
	pMol 0 \
	epsInf 1 \
	Pvap 0 \
	sigmaBulk 0 \
	Rvdw 2.24877 \
	Res 0 \
	tauNuc 343133
fluid-cation Na+ 1 MeanFieldLJ \
	epsBulk 1 \
	pMol 0 \
	epsInf 1 \
	Pvap 0 \
	sigmaBulk 0 \
	Rvdw 2.19208 \
	Res 0 \
	tauNuc 343133
fluid-ex-corr lda-TF lda-PZ
fluid-gummel-loop 10 1.000000e-05
fluid-minimize  \
	dirUpdateScheme      PolakRibiere \
	linminMethod         DirUpdateRecommended \
	nIterations          400 \
	history              15 \
	knormThreshold       1e-11 \
	energyDiffThreshold  0 \
	nEnergyDiff          2 \
	alphaTstart          1 \
	alphaTmin            1e-10 \
	updateTestStepSize   yes \
	alphaTreduceFactor   0.1 \
	alphaTincreaseFactor 3 \
	nAlphaAdjustMax      6 \
	wolfeEnergy          0.0001 \
	wolfeGradient        0.9 \
	fdTest               no
fluid-solvent H2O 55.338 ScalarEOS \
	epsBulk 78.4 \
	pMol 0.92466 \
	epsInf 1.77 \
	Pvap 1.06736e-10 \
	sigmaBulk 4.62e-05 \
	Rvdw 2.61727 \
	Res 1.42 \
	tauNuc 343133 \
	poleEl 15 7 1
forces-output-coords Positions
initial-state NbTe2.$VAR
ion Bi   0.375000001149388   0.659277061583945   0.657210505006790 0
ion Bi   0.875000001149388   0.659277061583945   0.657210505006790 0
ion Bi   0.124999999448171   0.340717944400414   0.342789605980253 0
ion Bi   0.624999999448171   0.340717944400414   0.342789605980253 0
ion Bi   0.374999999094918   0.301072483986115   0.411847553708424 0
ion Bi   0.874999999094918   0.301072483986115   0.411847553708424 0
ion Bi   0.125000000557897   0.698931179730543   0.588152858864090 0
ion Bi   0.625000000557897   0.698931179730543   0.588152858864090 0
ion Bi   0.375000001798611   0.077976990267745   0.382961306575626 0
ion Bi   0.875000001798611   0.077976990267745   0.382961306575626 0
ion Bi   0.124999999138900   0.922024645065113   0.617040425250383 0
ion Bi   0.624999999138900   0.922024645065113   0.617040425250383 0
ion Bi   0.374999999395371   0.974419433079402   0.550905783580324 0
ion Bi   0.874999999395371   0.974419433079402   0.550905783580324 0
ion Bi   0.125000000367869   0.025579291374776   0.449095635323685 0
ion Bi   0.625000000367869   0.025579291374776   0.449095635323685 0
ion Bi   0.374999999360348   0.199961567387887   0.578021021590321 0
ion Bi   0.874999999360348   0.199961567387887   0.578021021590321 0
ion Bi   0.124999999299455   0.800037473233163   0.421977876572631 0
ion Bi   0.624999999299455   0.800037473233163   0.421977876572631 0
ion Bi   0.374999999905441   0.754275232692878   0.489961033108346 0
ion Bi   0.874999999905441   0.754275232692878   0.489961033108346 0
ion Bi   0.124999999978591   0.245729472025270   0.510033702369402 0
ion Bi   0.624999999978591   0.245729472025270   0.510033702369402 0
ion Bi   0.375000000470059   0.525786075454492   0.466774305817052 0
ion Bi   0.875000000470060   0.525786075454492   0.466774305817052 0
ion Bi   0.124999999857550   0.474209224084776   0.533224110290303 0
ion Bi   0.624999999857550   0.474209224084776   0.533224110290303 0
ion Bi   0.124999999757513   0.563712398985152   0.367035125103621 0
ion Bi   0.624999999757513   0.563712398985152   0.367035125103621 0
ion Bi   0.375000000009486   0.436281012120547   0.632965908580814 0
ion Bi   0.875000000009486   0.436281012120547   0.632965908580814 0
ion Bi   0.125000000712987   0.385979112747197   0.701118789460922 0
ion Bi   0.625000000712987   0.385979112747197   0.701118789460922 0
ion Bi   0.374999999824112   0.614016934146848   0.298882386607767 0
ion Bi   0.874999999824112   0.614016934146848   0.298882386607767 0
ion I   0.124999999921250   0.593909268057357   0.745449596238339 0
ion I   0.624999999921251   0.593909268057357   0.745449596238339 0
ion I   0.374999999928690   0.406102267537234   0.254548721402561 0
ion I   0.874999999928690   0.406102267537234   0.254548721402561 0
ion I   0.125000000168782   0.158071797795715   0.673016264063717 0
ion I   0.625000000168782   0.158071797795715   0.673016264063717 0
ion I   0.374999999854623   0.841929134243401   0.326987484504620 0
ion I   0.874999999854623   0.841929134243401   0.326987484504620 0
ion-species GBRV/$ID_pbe.uspp
ion-width Ecut
ionic-minimize  \
	dirUpdateScheme      L-BFGS \
	linminMethod         DirUpdateRecommended \
	nIterations          0 \
	history              15 \
	knormThreshold       0.0001 \
	energyDiffThreshold  1e-06 \
	nEnergyDiff          2 \
	alphaTstart          1 \
	alphaTmin            1e-10 \
	updateTestStepSize   yes \
	alphaTreduceFactor   0.1 \
	alphaTincreaseFactor 3 \
	nAlphaAdjustMax      3 \
	wolfeEnergy          0.0001 \
	wolfeGradient        0.9 \
	fdTest               no
kpoint   0.000000000000   0.000000000000   0.000000000000  1.00000000000000
kpoint-folding 4 3 1 
latt-move-scale 1 1 1
latt-scale 1 1 1 
lattice Triclinic 16.7699 25.1035 56.5964 90 90 90
lattice-minimize  \
	dirUpdateScheme      L-BFGS \
	linminMethod         DirUpdateRecommended \
	nIterations          0 \
	history              15 \
	knormThreshold       0 \
	energyDiffThreshold  1e-06 \
	nEnergyDiff          2 \
	alphaTstart          1 \
	alphaTmin            1e-10 \
	updateTestStepSize   yes \
	alphaTreduceFactor   0.1 \
	alphaTincreaseFactor 3 \
	nAlphaAdjustMax      3 \
	wolfeEnergy          0.0001 \
	wolfeGradient        0.9 \
	fdTest               no
lcao-params -1 1e-06 0.0073499
pcm-variant CANDLE
spintype no-spin
subspace-rotation-factor 1 yes
symmetries automatic
symmetry-threshold 0.0001
target-mu -0.171252 no




---------- Setting up symmetries ----------

Found 8 point-group symmetries of the bravais lattice
Found 4 space-group symmetries with basis
Applied RMS atom displacement 1.07517e-08 bohrs to make symmetries exact.

---------- Initializing the Grid ----------
R = 
[    16.7699          0          0  ]
[          0    25.1035          0  ]
[          0          0    56.5964  ]
unit cell volume = 23826.2
G =
[    0.37467          0          0  ]
[          0   0.250291          0  ]
[          0          0   0.111017  ]
Minimum fftbox size, Smin = [  76  116  256  ]
Chosen fftbox size, S = [  80  120  256  ]

---------- Initializing tighter grid for wavefunction operations ----------
R = 
[    16.7699          0          0  ]
[          0    25.1035          0  ]
[          0          0    56.5964  ]
unit cell volume = 23826.2
G =
[    0.37467          0          0  ]
[          0   0.250291          0  ]
[          0          0   0.111017  ]
Minimum fftbox size, Smin = [  68  104  228  ]
Chosen fftbox size, S = [  70  108  240  ]

---------- Exchange Correlation functional ----------
Initalized PBE GGA exchange.
Initalized PBE GGA correlation.

---------- Setting up pseudopotentials ----------
Width of ionic core gaussian charges (only for fluid interactions / plotting) set to 0.397384

Reading pseudopotential file '/home/guoxy/vasp/jdftx-1.5.0/build/pseudopotentials/GBRV/bi_pbe.uspp':
  Title: Bi.  Created by USPP 7.3.6 on 14-9-2013
  Reference state energy: -92.204004.  15 valence electrons in orbitals:
    |520>  occupation: 10  eigenvalue: -1.293263
    |600>  occupation: 2  eigenvalue: -0.812524
    |610>  occupation: 2  eigenvalue: -0.420386
  lMax: 2  lLocal: 3  QijEcut: 5
  6 projectors sampled on a log grid with 747 points:
    l: 0  eig: -0.812524  rCut: 2.5
    l: 0  eig: 0.500000  rCut: 2.5
    l: 1  eig: -0.420386  rCut: 2.5
    l: 1  eig: 1.000000  rCut: 2.5
    l: 2  eig: -1.293263  rCut: 2.3
    l: 2  eig: -0.500000  rCut: 2.3
  Partial core density with radius 1
  Transforming core density to a uniform radial grid of dG=0.02 with 1282 points.
  Transforming local potential to a uniform radial grid of dG=0.02 with 1282 points.
  Transforming nonlocal projectors to a uniform radial grid of dG=0.02 with 432 points.
  Transforming density augmentations to a uniform radial grid of dG=0.02 with 1282 points.
  Transforming atomic orbitals to a uniform radial grid of dG=0.02 with 432 points.
  Core radius for overlap checks: 2.50 bohrs.

Reading pseudopotential file '/home/guoxy/vasp/jdftx-1.5.0/build/pseudopotentials/GBRV/i_pbe.uspp':
  Title: I.  Created by USPP 7.3.6 on 14-9-2013
  Reference state energy: -32.770235.  7 valence electrons in orbitals:
    |500>  occupation: 2  eigenvalue: -0.639712
    |510>  occupation: 5  eigenvalue: -0.260406
  lMax: 2  lLocal: 3  QijEcut: 5
  6 projectors sampled on a log grid with 725 points:
    l: 0  eig: -0.639710  rCut: 1.9
    l: 0  eig: 0.000000  rCut: 1.9
    l: 1  eig: -0.260404  rCut: 2
    l: 1  eig: 0.000000  rCut: 2
    l: 2  eig: -0.500000  rCut: 2.45
    l: 2  eig: 0.500000  rCut: 2.45
  Partial core density with radius 1.3
  Transforming core density to a uniform radial grid of dG=0.02 with 1282 points.
  Transforming local potential to a uniform radial grid of dG=0.02 with 1282 points.
  Transforming nonlocal projectors to a uniform radial grid of dG=0.02 with 432 points.
  Transforming density augmentations to a uniform radial grid of dG=0.02 with 1282 points.
  Transforming atomic orbitals to a uniform radial grid of dG=0.02 with 432 points.
  Core radius for overlap checks: 2.45 bohrs.

Initialized 2 species with 44 total atoms.

Folded 1 k-points by 4x3x1 to 12 k-points.

---------- Setting up k-points, bands, fillings ----------
Adding inversion symmetry to k-mesh for non-inversion-symmetric unit cell.
Reduced to 6 k-points under symmetry. 
Computing the number of bands and number of electrons
Reading initial fillings from file NbTe2.fillings.
nElectrons: 596.000000   nBands: 356   nStates: 6

----- Setting up reduced wavefunction bases (one per k-point) -----
average nbasis = 101802.417 , ideal nbasis = 101787.256

---------- Setting up coulomb interaction ----------
Fluid mode embedding: using embedded box, but periodic Coulomb kernel.
(Fluid response is responsible for (approximate) separation between periodic images.)
Setting up double-sized grid for truncated Coulomb potentials:
R = 
[    16.7699          0          0  ]
[          0    25.1035          0  ]
[          0          0    113.193  ]
unit cell volume = 47652.4
G =
[    0.37467          0          0  ]
[          0   0.250291          0  ]
[          0          0  0.0555087  ]
Chosen fftbox size, S = [  80  120  512  ]
Integer grid location selected as the embedding center:
   Grid: [  0  0  128  ]
   Lattice: [  0  0  0.5  ]
   Cartesian: [  0  0  28.2982  ]
Constructing Wigner-Seitz cell: 6 faces (6 quadrilaterals, 0 hexagons)
Range-separation parameter for embedded mesh potentials due to point charges: 0.593177 bohrs.

Initializing van der Waals corrections
	NOTE: vdW corrections apply only for interactions with fluid.
	Bi:  C6:  893.28 Eh-a0^6  R0: 3.555 a0 (WARNING: beyond Grimme's data set)
	 I:  C6:  546.38 Eh-a0^6  R0: 3.575 a0

---------- Setting up ewald sum ----------
Optimum gaussian width for ewald sums = 7.697731 bohr.
Real space sum over 585 unit cells with max indices [  6  4  2  ]
Reciprocal space sum over 7007 terms with max indices [  5  6  24  ]

---------- Allocating electronic variables ----------
Initializing wave functions:  reading from 'NbTe2.wfns'
----- createFluidSolver() ----- (Fluid-side solver setup)
   Initializing fluid molecule 'H2O'
     Initializing site 'O'
       Electron density: proportional to exp(-r/0.36935)*erfc((r-0.51523)/0.36823) with norm 6.826
       Charge density: gaussian nuclear width 0.478731 with net site charge 0.826
       Polarizability: cuspless exponential with width 0.32 and norm 3.73
       Hard sphere radius: 2.57003 bohrs
       Positions in reference frame:
         [ +0.000000 +0.000000 +0.000000 ]
     Initializing site 'H'
       Electron density: proportional to exp(-r/0.34641)*erfc((r-0)/0.390882) with norm 0.587
       Charge density: gaussian nuclear width 0.377945 with net site charge -0.413
       Polarizability: cuspless exponential with width 0.39 and norm 3.3
       Positions in reference frame:
         [ +0.000000 -1.441945 +1.122523 ]
         [ +0.000000 +1.441945 +1.122523 ]
     Net charge: 0   dipole magnitude: 0.927204
     Initializing spherical shell mfKernel with radius 2.61727 Bohr
     deltaS corrections:
       site 'O': -7.54299
       site 'H': -6.83917
   Initializing fluid molecule 'Na+'
     Initializing site 'Na'
       Electron density: proportional to exp(-r/0.19682)*erfc((r-0.71491)/0.41314) with norm 8.1383
       Charge density: gaussian nuclear width 0.365347 with net site charge -1
       Hard sphere radius: 1.86327 bohrs
       Positions in reference frame:
         [ +0.000000 +0.000000 +0.000000 ]
     Net charge: -1   dipole magnitude: 0
     Initializing gaussian mfKernel with width: 1.55004 Bohr
     deltaS corrections:
       site 'Na': -22.3555
   Initializing fluid molecule 'F-'
     Initializing site 'F'
       Electron density: proportional to exp(-r/0.38886)*erfc((r-0)/0.438782) with norm 8
       Charge density: gaussian nuclear width 0.374796 with net site charge 1
       Hard sphere radius: 2.39995 bohrs
       Positions in reference frame:
         [ +0.000000 +0.000000 +0.000000 ]
     Net charge: 1   dipole magnitude: 0
     Initializing gaussian mfKernel with width: 1.59012 Bohr
     deltaS corrections:
       site 'F': -9.04335

Correction to mu due to finite nuclear width = -0.0124097
   Cavity determined by nc: 0.00142 and sigma: 0.707107
   Nonlocal vdW cavity from gaussian model electron density with norm = 8 and sigma = 0.993594 bohr
   Charge asymmetry in cavity with sensitivity pCavity = 36.5 e-bohr/Eh
   Electrostatic cavity expanded by eta = 1.46 bohrs
   Weighted density cavitation model constrained by Nbulk: 0.0049383 bohr^-3, Pvap: 3.14029 kPa, Rvdw: 2.61727 bohr and sigmaBulk: 4.62e-05 Eh/bohr^2 at T: 298 K.
   Weighted density dispersion model using vdW pair potentials with single solvent site with sqrtC6eff: 0.77 SI.
Reading fluid state from 'NbTe2.fluidState'


---- Citations for features of the code used in this run ----

   Software package:
      R. Sundararaman, K. Letchworth-Weaver, K.A. Schwarz, D. Gunceler, Y. Ozhabes and T.A. Arias, 'JDFTx: software for joint density-functional theory', SoftwareX 6, 278 (2017)

   gga-PBE exchange-correlation functional:
      J.P. Perdew, K. Burke and M. Ernzerhof, Phys. Rev. Lett. 77, 3865 (1996)

   Pseudopotentials:
      KF Garrity, JW Bennett, KM Rabe and D Vanderbilt, Comput. Mater. Sci. 81, 446 (2014)

   Truncated Coulomb potentials:
      R. Sundararaman and T.A. Arias, Phys. Rev. B 87, 165122 (2013)

   Van der Waals correction pair-potentials:
      S. Grimme, J. Comput. Chem. 27, 1787 (2006)

   Charge-asymmetric nonlocally-determined local-electric (CANDLE) solvation model:
      R. Sundararaman and W.A. Goddard III, J. Chem. Phys. 142, 064107 (2015)

   Grand-canonical (fixed-potential) DFT:
      R. Sundararaman, W. A. Goddard III and T. A. Arias, J. Chem. Phys. 146, 114104 (2017)

This list may not be complete. Please suggest additional citations or
report any other bugs at https://github.com/shankar1729/jdftx/issues

Initialization completed successfully at t[s]:     69.01

Shifting auxilliary hamiltonian by -0.000020 to set nElectrons=596.000000
	Linear fluid (dielectric constant: 78.4, screening length: 5.74355 Bohr) occupying 0.706215 of unit cell:	Completed after 0 iterations at t[s]:     83.40

-------- Electronic minimization -----------
Will mix electronic density at each iteration.
	FillingsUpdate:  mu: -0.171251800  nElectrons: 596.000000
	Linear fluid (dielectric constant: 78.4, screening length: 5.74355 Bohr) occupying 0.706215 of unit cell:	Completed after 0 iterations at t[s]:     99.33
	FillingsUpdate:  mu: -0.171251800  nElectrons: 595.992488
	Linear fluid (dielectric constant: 78.4, screening length: 5.74355 Bohr) occupying 0.706211 of unit cell:	Completed after 9 iterations at t[s]:    212.94
SCF: Cycle:  0   G: -2578.413047788285894   dG: +3.580e-06   |Residual|: 1.010e-04   |deigs|: 5.360e-07  t[s]:    215.00
	Linear fluid (dielectric constant: 78.4, screening length: 5.74355 Bohr) occupying 0.706214 of unit cell:	Completed after 9 iterations at t[s]:    216.81
	FillingsUpdate:  mu: -0.171251800  nElectrons: 596.056477
	Linear fluid (dielectric constant: 78.4, screening length: 5.74355 Bohr) occupying 0.706261 of unit cell:	Completed after 14 iterations at t[s]:    347.17
SCF: Cycle:  1   G: -2578.412875219995840   dG: +1.726e-04   |Residual|: 9.058e-04   |deigs|: 1.847e-04  t[s]:    349.30
	Linear fluid (dielectric constant: 78.4, screening length: 5.74355 Bohr) occupying 0.706214 of unit cell:	Completed after 14 iterations at t[s]:    351.77
	FillingsUpdate:  mu: -0.171251800  nElectrons: 596.040057
	Linear fluid (dielectric constant: 78.4, screening length: 5.74355 Bohr) occupying 0.706245 of unit cell:	Completed after 14 iterations at t[s]:    456.51
SCF: Cycle:  2   G: -2578.412937837094432   dG: -6.262e-05   |Residual|: 7.354e-04   |deigs|: 5.127e-05  t[s]:    458.63
	Linear fluid (dielectric constant: 78.4, screening length: 5.74355 Bohr) occupying 0.706214 of unit cell:	Completed after 14 iterations at t[s]:    461.02
	FillingsUpdate:  mu: -0.171251800  nElectrons: 596.040537
	Linear fluid (dielectric constant: 78.4, screening length: 5.74355 Bohr) occupying 0.706246 of unit cell:	Completed after 14 iterations at t[s]:    552.79
SCF: Cycle:  3   G: -2578.412940225925922   dG: -2.389e-06   |Residual|: 7.271e-04   |deigs|: 5.027e-06  t[s]:    554.93
	Linear fluid (dielectric constant: 78.4, screening length: 5.74355 Bohr) occupying 0.706214 of unit cell:	Completed after 14 iterations at t[s]:    557.29
	FillingsUpdate:  mu: -0.171251800  nElectrons: 596.040598
	Linear fluid (dielectric constant: 78.4, screening length: 5.74355 Bohr) occupying 0.706245 of unit cell:	Completed after 14 iterations at t[s]:    648.85
SCF: Cycle:  4   G: -2578.412938818679322   dG: +1.407e-06   |Residual|: 7.321e-04   |deigs|: 8.281e-07  t[s]:    650.65
	Linear fluid (dielectric constant: 78.4, screening length: 5.74355 Bohr) occupying 0.706214 of unit cell:	Completed after 15 iterations at t[s]:    652.99
	FillingsUpdate:  mu: -0.171251800  nElectrons: 596.041657
	Linear fluid (dielectric constant: 78.4, screening length: 5.74355 Bohr) occupying 0.706246 of unit cell:	Completed after 14 iterations at t[s]:    744.10
SCF: Cycle:  5   G: -2578.412936473901937   dG: +2.345e-06   |Residual|: 7.436e-04   |deigs|: 4.017e-06  t[s]:    746.23
	Linear fluid (dielectric constant: 78.4, screening length: 5.74355 Bohr) occupying 0.706214 of unit cell:	Completed after 14 iterations at t[s]:    748.64
	FillingsUpdate:  mu: -0.171251800  nElectrons: 596.040530
	Linear fluid (dielectric constant: 78.4, screening length: 5.74355 Bohr) occupying 0.706245 of unit cell:	Completed after 13 iterations at t[s]:    840.64
SCF: Cycle:  6   G: -2578.412938168111395   dG: -1.694e-06   |Residual|: 7.362e-04   |deigs|: 4.977e-06  t[s]:    843.08
	Linear fluid (dielectric constant: 78.4, screening length: 5.74355 Bohr) occupying 0.706214 of unit cell:	Completed after 14 iterations at t[s]:    845.53
	FillingsUpdate:  mu: -0.171251800  nElectrons: 596.040335
	Linear fluid (dielectric constant: 78.4, screening length: 5.74355 Bohr) occupying 0.706245 of unit cell:	Completed after 14 iterations at t[s]:    945.63
SCF: Cycle:  7   G: -2578.412938474800285   dG: -3.067e-07   |Residual|: 7.372e-04   |deigs|: 8.836e-07  t[s]:    947.88
	Linear fluid (dielectric constant: 78.4, screening length: 5.74355 Bohr) occupying 0.706214 of unit cell:	Completed after 14 iterations at t[s]:    950.13
	FillingsUpdate:  mu: -0.171251800  nElectrons: 596.040014
	Linear fluid (dielectric constant: 78.4, screening length: 5.74355 Bohr) occupying 0.706245 of unit cell:	Completed after 15 iterations at t[s]:   1040.75
SCF: Cycle:  8   G: -2578.412943228070617   dG: -4.753e-06   |Residual|: 7.163e-04   |deigs|: 3.375e-06  t[s]:   1042.78
	Linear fluid (dielectric constant: 78.4, screening length: 5.74355 Bohr) occupying 0.706213 of unit cell:	Completed after 14 iterations at t[s]:   1045.17
	FillingsUpdate:  mu: -0.171251800  nElectrons: 596.039628
	Linear fluid (dielectric constant: 78.4, screening length: 5.74355 Bohr) occupying 0.706245 of unit cell:	Completed after 14 iterations at t[s]:   1119.28
SCF: Cycle:  9   G: -2578.412947296587390   dG: -4.069e-06   |Residual|: 7.024e-04   |deigs|: 1.708e-06  t[s]:   1121.48
	Linear fluid (dielectric constant: 78.4, screening length: 5.74355 Bohr) occupying 0.706214 of unit cell:	Completed after 14 iterations at t[s]:   1123.85
	FillingsUpdate:  mu: -0.171251800  nElectrons: 596.040468
	Linear fluid (dielectric constant: 78.4, screening length: 5.74355 Bohr) occupying 0.706245 of unit cell:	Completed after 14 iterations at t[s]:   1211.91
SCF: Cycle: 10   G: -2578.412939209825709   dG: +8.087e-06   |Residual|: 7.309e-04   |deigs|: 3.842e-06  t[s]:   1214.12
	Linear fluid (dielectric constant: 78.4, screening length: 5.74355 Bohr) occupying 0.706202 of unit cell:	Completed after 15 iterations at t[s]:   1216.71
	FillingsUpdate:  mu: -0.171251800  nElectrons: 596.007531
	Linear fluid (dielectric constant: 78.4, screening length: 5.74355 Bohr) occupying 0.706222 of unit cell:	Completed after 8 iterations at t[s]:   1320.66
SCF: Cycle: 11   G: -2578.413047818877203   dG: -1.086e-04   |Residual|: 3.868e-04   |deigs|: 1.025e-04  t[s]:   1322.87
	Linear fluid (dielectric constant: 78.4, screening length: 5.74355 Bohr) occupying 0.706204 of unit cell:	Completed after 5 iterations at t[s]:   1324.32
	FillingsUpdate:  mu: -0.171251800  nElectrons: 595.983675
	Linear fluid (dielectric constant: 78.4, screening length: 5.74355 Bohr) occupying 0.706206 of unit cell:	Completed after 12 iterations at t[s]:   1415.46
SCF: Cycle: 12   G: -2578.413028289948670   dG: +1.953e-05   |Residual|: 4.379e-04   |deigs|: 6.522e-05  t[s]:   1417.37
	Linear fluid (dielectric constant: 78.4, screening length: 5.74355 Bohr) occupying 0.706203 of unit cell:	Completed after 12 iterations at t[s]:   1419.56
	FillingsUpdate:  mu: -0.171251800  nElectrons: 596.010291
	Linear fluid (dielectric constant: 78.4, screening length: 5.74355 Bohr) occupying 0.706225 of unit cell:	Completed after 9 iterations at t[s]:   1511.04
SCF: Cycle: 13   G: -2578.413047107382681   dG: -1.882e-05   |Residual|: 4.048e-04   |deigs|: 7.420e-05  t[s]:   1513.08
	Linear fluid (dielectric constant: 78.4, screening length: 5.74355 Bohr) occupying 0.706206 of unit cell:	Completed after 9 iterations at t[s]:   1514.79
	FillingsUpdate:  mu: -0.171251800  nElectrons: 595.983661
	Linear fluid (dielectric constant: 78.4, screening length: 5.74355 Bohr) occupying 0.706207 of unit cell:	Completed after 12 iterations at t[s]:   1605.38
SCF: Cycle: 14   G: -2578.413028427904464   dG: +1.868e-05   |Residual|: 3.429e-04   |deigs|: 7.672e-05  t[s]:   1607.27
	Linear fluid (dielectric constant: 78.4, screening length: 5.74355 Bohr) occupying 0.706206 of unit cell:	Completed after 12 iterations at t[s]:   1609.33
	FillingsUpdate:  mu: -0.171251800  nElectrons: 596.014596
	Linear fluid (dielectric constant: 78.4, screening length: 5.74355 Bohr) occupying 0.706227 of unit cell:	Completed after 10 iterations at t[s]:   1695.81
SCF: Cycle: 15   G: -2578.413043792659209   dG: -1.536e-05   |Residual|: 2.396e-04   |deigs|: 8.711e-05  t[s]:   1697.64
	Linear fluid (dielectric constant: 78.4, screening length: 5.74355 Bohr) occupying 0.706208 of unit cell:	Completed after 10 iterations at t[s]:   1699.43
	FillingsUpdate:  mu: -0.171251800  nElectrons: 596.007252
	Linear fluid (dielectric constant: 78.4, screening length: 5.74355 Bohr) occupying 0.706220 of unit cell:	Completed after 10 iterations at t[s]:   1785.73
SCF: Cycle: 16   G: -2578.413042864287490   dG: +9.284e-07   |Residual|: 2.694e-04   |deigs|: 3.141e-05  t[s]:   1787.56
	Linear fluid (dielectric constant: 78.4, screening length: 5.74355 Bohr) occupying 0.706208 of unit cell:	Completed after 10 iterations at t[s]:   1789.38
	FillingsUpdate:  mu: -0.171251800  nElectrons: 596.001568
	Linear fluid (dielectric constant: 78.4, screening length: 5.74355 Bohr) occupying 0.706217 of unit cell:	Completed after 2 iterations at t[s]:   1901.41
SCF: Cycle: 17   G: -2578.413051111044751   dG: -8.247e-06   |Residual|: 1.004e-04   |deigs|: 2.702e-05  t[s]:   1903.11
	Linear fluid (dielectric constant: 78.4, screening length: 5.74355 Bohr) occupying 0.706208 of unit cell:	Completed after 1 iterations at t[s]:   1903.94
	FillingsUpdate:  mu: -0.171251800  nElectrons: 595.997456
	Linear fluid (dielectric constant: 78.4, screening length: 5.74355 Bohr) occupying 0.706214 of unit cell:	Completed after 3 iterations at t[s]:   1989.52
SCF: Cycle: 18   G: -2578.413050247661886   dG: +8.634e-07   |Residual|: 1.968e-04   |deigs|: 2.282e-05  t[s]:   1991.44
	Linear fluid (dielectric constant: 78.4, screening length: 5.74355 Bohr) occupying 0.706208 of unit cell:	Completed after 4 iterations at t[s]:   1992.65
	FillingsUpdate:  mu: -0.171251800  nElectrons: 596.003031
	Linear fluid (dielectric constant: 78.4, screening length: 5.74355 Bohr) occupying 0.706219 of unit cell:	Completed after 3 iterations at t[s]:   2096.57
SCF: Cycle: 19   G: -2578.413050830858992   dG: -5.832e-07   |Residual|: 1.395e-04   |deigs|: 2.479e-05  t[s]:   2098.22
	Linear fluid (dielectric constant: 78.4, screening length: 5.74355 Bohr) occupying 0.706209 of unit cell:	Completed after 3 iterations at t[s]:   2099.27
	FillingsUpdate:  mu: -0.171251800  nElectrons: 595.999951
	Linear fluid (dielectric constant: 78.4, screening length: 5.74355 Bohr) occupying 0.706217 of unit cell:	Completed after 3 iterations at t[s]:   2193.93
SCF: Cycle: 20   G: -2578.413050995781759   dG: -1.649e-07   |Residual|: 9.957e-05   |deigs|: 1.387e-05  t[s]:   2195.72
	Linear fluid (dielectric constant: 78.4, screening length: 5.74355 Bohr) occupying 0.706209 of unit cell:	Completed after 2 iterations at t[s]:   2196.66
	FillingsUpdate:  mu: -0.171251800  nElectrons: 596.012079
	Linear fluid (dielectric constant: 78.4, screening length: 5.74355 Bohr) occupying 0.706224 of unit cell:	Completed after 9 iterations at t[s]:   2335.23
SCF: Cycle: 21   G: -2578.413042675366796   dG: +8.320e-06   |Residual|: 2.404e-04   |deigs|: 3.886e-05  t[s]:   2336.97
	Linear fluid (dielectric constant: 78.4, screening length: 5.74355 Bohr) occupying 0.706208 of unit cell:	Completed after 10 iterations at t[s]:   2338.73
	FillingsUpdate:  mu: -0.171251800  nElectrons: 596.001972
	Linear fluid (dielectric constant: 78.4, screening length: 5.74355 Bohr) occupying 0.706217 of unit cell:	Completed after 4 iterations at t[s]:   2424.82
SCF: Cycle: 22   G: -2578.413050079435379   dG: -7.404e-06   |Residual|: 1.384e-04   |deigs|: 3.307e-05  t[s]:   2426.55
	Linear fluid (dielectric constant: 78.4, screening length: 5.74355 Bohr) occupying 0.706208 of unit cell:	Completed after 3 iterations at t[s]:   2427.64
	FillingsUpdate:  mu: -0.171251800  nElectrons: 595.966103
	Linear fluid (dielectric constant: 78.4, screening length: 5.74355 Bohr) occupying 0.706197 of unit cell:	Completed after 13 iterations at t[s]:   2513.29
SCF: Cycle: 23   G: -2578.412977115340709   dG: +7.296e-05   |Residual|: 5.417e-04   |deigs|: 1.019e-04  t[s]:   2515.11
	Linear fluid (dielectric constant: 78.4, screening length: 5.74355 Bohr) occupying 0.706208 of unit cell:	Completed after 14 iterations at t[s]:   2517.32
	FillingsUpdate:  mu: -0.171251800  nElectrons: 596.009302
	Linear fluid (dielectric constant: 78.4, screening length: 5.74355 Bohr) occupying 0.706223 of unit cell:	Completed after 9 iterations at t[s]:   2603.48
SCF: Cycle: 24   G: -2578.413048482290833   dG: -7.137e-05   |Residual|: 1.643e-04   |deigs|: 1.224e-04  t[s]:   2605.31
	Linear fluid (dielectric constant: 78.4, screening length: 5.74355 Bohr) occupying 0.706209 of unit cell:	Completed after 9 iterations at t[s]:   2606.94
	FillingsUpdate:  mu: -0.171251800  nElectrons: 596.005660
	Linear fluid (dielectric constant: 78.4, screening length: 5.74355 Bohr) occupying 0.706220 of unit cell:	Completed after 8 iterations at t[s]:   2720.56
SCF: Cycle: 25   G: -2578.413048242038712   dG: +2.403e-07   |Residual|: 1.605e-04   |deigs|: 1.636e-05  t[s]:   2722.45
	Linear fluid (dielectric constant: 78.4, screening length: 5.74355 Bohr) occupying 0.706209 of unit cell:	Completed after 9 iterations at t[s]:   2724.16
	FillingsUpdate:  mu: -0.171251800  nElectrons: 595.999329
	Linear fluid (dielectric constant: 78.4, screening length: 5.74355 Bohr) occupying 0.706215 of unit cell:	Completed after 1 iterations at t[s]:   2850.65
SCF: Cycle: 26   G: -2578.413051272179928   dG: -3.030e-06   |Residual|: 6.078e-05   |deigs|: 1.922e-05  t[s]:   2852.94
	Linear fluid (dielectric constant: 78.4, screening length: 5.74355 Bohr) occupying 0.706209 of unit cell:	Completed after 0 iterations at t[s]:   2853.77
	FillingsUpdate:  mu: -0.171251800  nElectrons: 596.000948
	Linear fluid (dielectric constant: 78.4, screening length: 5.74355 Bohr) occupying 0.706217 of unit cell:	Completed after 3 iterations at t[s]:   2961.53
SCF: Cycle: 27   G: -2578.413051135250043   dG: +1.369e-07   |Residual|: 6.338e-05   |deigs|: 1.355e-05  t[s]:   2963.82
	Linear fluid (dielectric constant: 78.4, screening length: 5.74355 Bohr) occupying 0.706209 of unit cell:	Completed after 1 iterations at t[s]:   2964.78
	FillingsUpdate:  mu: -0.171251800  nElectrons: 596.004627
	Linear fluid (dielectric constant: 78.4, screening length: 5.74355 Bohr) occupying 0.706218 of unit cell:	Completed after 8 iterations at t[s]:   3112.08
SCF: Cycle: 28   G: -2578.413046774455779   dG: +4.361e-06   |Residual|: 2.467e-04   |deigs|: 3.217e-05  t[s]:   3114.40
	Linear fluid (dielectric constant: 78.4, screening length: 5.74355 Bohr) occupying 0.706209 of unit cell:	Completed after 8 iterations at t[s]:   3116.21
	FillingsUpdate:  mu: -0.171251800  nElectrons: 595.989358
	Linear fluid (dielectric constant: 78.4, screening length: 5.74355 Bohr) occupying 0.706208 of unit cell:	Completed after 9 iterations at t[s]:   3206.83
SCF: Cycle: 29   G: -2578.413045052656344   dG: +1.722e-06   |Residual|: 1.718e-04   |deigs|: 4.696e-05  t[s]:   3209.04
	Linear fluid (dielectric constant: 78.4, screening length: 5.74355 Bohr) occupying 0.706209 of unit cell:	Completed after 9 iterations at t[s]:   3211.09
	FillingsUpdate:  mu: -0.171251800  nElectrons: 596.016185
	Linear fluid (dielectric constant: 78.4, screening length: 5.74355 Bohr) occupying 0.706229 of unit cell:	Completed after 10 iterations at t[s]:   3301.95
SCF: Cycle: 30   G: -2578.413043320788802   dG: +1.732e-06   |Residual|: 2.617e-04   |deigs|: 7.646e-05  t[s]:   3304.04
	Linear fluid (dielectric constant: 78.4, screening length: 5.74355 Bohr) occupying 0.706209 of unit cell:	Completed after 9 iterations at t[s]:   3305.94
	FillingsUpdate:  mu: -0.171251800  nElectrons: 596.007311
	Linear fluid (dielectric constant: 78.4, screening length: 5.74355 Bohr) occupying 0.706220 of unit cell:	Completed after 9 iterations at t[s]:   3396.91
SCF: Cycle: 31   G: -2578.413044341308705   dG: -1.021e-06   |Residual|: 2.452e-04   |deigs|: 3.461e-05  t[s]:   3398.87
	Linear fluid (dielectric constant: 78.4, screening length: 5.74355 Bohr) occupying 0.706209 of unit cell:	Completed after 10 iterations at t[s]:   3400.72
	FillingsUpdate:  mu: -0.171251800  nElectrons: 596.003867
	Linear fluid (dielectric constant: 78.4, screening length: 5.74355 Bohr) occupying 0.706219 of unit cell:	Completed after 4 iterations at t[s]:   3512.40
SCF: Cycle: 32   G: -2578.413050462200772   dG: -6.121e-06   |Residual|: 9.879e-05   |deigs|: 1.958e-05  t[s]:   3514.53
	Linear fluid (dielectric constant: 78.4, screening length: 5.74355 Bohr) occupying 0.706209 of unit cell:	Completed after 4 iterations at t[s]:   3515.74
	FillingsUpdate:  mu: -0.171251800  nElectrons: 595.973561
	Linear fluid (dielectric constant: 78.4, screening length: 5.74355 Bohr) occupying 0.706201 of unit cell:	Completed after 12 iterations at t[s]:   3606.90
SCF: Cycle: 33   G: -2578.413000642091902   dG: +4.982e-05   |Residual|: 4.605e-04   |deigs|: 8.555e-05  t[s]:   3609.07
	Linear fluid (dielectric constant: 78.4, screening length: 5.74355 Bohr) occupying 0.706209 of unit cell:	Completed after 12 iterations at t[s]:   3611.31
	FillingsUpdate:  mu: -0.171251800  nElectrons: 596.012868
	Linear fluid (dielectric constant: 78.4, screening length: 5.74355 Bohr) occupying 0.706226 of unit cell:	Completed after 9 iterations at t[s]:   3701.46
SCF: Cycle: 34   G: -2578.413045471837449   dG: -4.483e-05   |Residual|: 2.196e-04   |deigs|: 1.121e-04  t[s]:   3703.40
	Linear fluid (dielectric constant: 78.4, screening length: 5.74355 Bohr) occupying 0.706210 of unit cell:	Completed after 10 iterations at t[s]:   3705.32
	FillingsUpdate:  mu: -0.171251800  nElectrons: 596.005535
	Linear fluid (dielectric constant: 78.4, screening length: 5.74355 Bohr) occupying 0.706219 of unit cell:	Completed after 8 iterations at t[s]:   3795.20
SCF: Cycle: 35   G: -2578.413047132321481   dG: -1.660e-06   |Residual|: 1.914e-04   |deigs|: 2.902e-05  t[s]:   3797.37
	Linear fluid (dielectric constant: 78.4, screening length: 5.74355 Bohr) occupying 0.706209 of unit cell:	Completed after 8 iterations at t[s]:   3799.15
	FillingsUpdate:  mu: -0.171251800  nElectrons: 595.995452
	Linear fluid (dielectric constant: 78.4, screening length: 5.74355 Bohr) occupying 0.706213 of unit cell:	Completed after 7 iterations at t[s]:   3900.38
SCF: Cycle: 36   G: -2578.413050364057199   dG: -3.232e-06   |Residual|: 7.646e-05   |deigs|: 3.032e-05  t[s]:   3902.49
	Linear fluid (dielectric constant: 78.4, screening length: 5.74355 Bohr) occupying 0.706210 of unit cell:	Completed after 4 iterations at t[s]:   3903.94
	FillingsUpdate:  mu: -0.171251800  nElectrons: 596.048307
	Linear fluid (dielectric constant: 78.4, screening length: 5.74355 Bohr) occupying 0.706254 of unit cell:	Completed after 14 iterations at t[s]:   3995.21
SCF: Cycle: 37   G: -2578.412924125133486   dG: +1.262e-04   |Residual|: 7.196e-04   |deigs|: 1.487e-04  t[s]:   3997.24
	Linear fluid (dielectric constant: 78.4, screening length: 5.74355 Bohr) occupying 0.706210 of unit cell:	Completed after 14 iterations at t[s]:   3999.59
	FillingsUpdate:  mu: -0.171251800  nElectrons: 596.007485
	Linear fluid (dielectric constant: 78.4, screening length: 5.74355 Bohr) occupying 0.706221 of unit cell:	Completed after 10 iterations at t[s]:   4089.34
SCF: Cycle: 38   G: -2578.413047537660987   dG: -1.234e-04   |Residual|: 1.607e-04   |deigs|: 1.157e-04  t[s]:   4091.39
	Linear fluid (dielectric constant: 78.4, screening length: 5.74355 Bohr) occupying 0.706210 of unit cell:	Completed after 10 iterations at t[s]:   4093.35
	FillingsUpdate:  mu: -0.171251800  nElectrons: 596.005217
	Linear fluid (dielectric constant: 78.4, screening length: 5.74355 Bohr) occupying 0.706220 of unit cell:	Completed after 5 iterations at t[s]:   4183.02
SCF: Cycle: 39   G: -2578.413049516641877   dG: -1.979e-06   |Residual|: 1.072e-04   |deigs|: 7.918e-06  t[s]:   4185.08
	Linear fluid (dielectric constant: 78.4, screening length: 5.74355 Bohr) occupying 0.706210 of unit cell:	Completed after 3 iterations at t[s]:   4186.27
	FillingsUpdate:  mu: -0.171251800  nElectrons: 595.956170
	Linear fluid (dielectric constant: 78.4, screening length: 5.74355 Bohr) occupying 0.706191 of unit cell:	Completed after 14 iterations at t[s]:   4296.33
SCF: Cycle: 40   G: -2578.412938353745176   dG: +1.112e-04   |Residual|: 6.672e-04   |deigs|: 1.355e-04  t[s]:   4298.29
	Linear fluid (dielectric constant: 78.4, screening length: 5.74355 Bohr) occupying 0.706210 of unit cell:	Completed after 14 iterations at t[s]:   4300.57
	FillingsUpdate:  mu: -0.171251800  nElectrons: 596.010400
	Linear fluid (dielectric constant: 78.4, screening length: 5.74355 Bohr) occupying 0.706224 of unit cell:	Completed after 9 iterations at t[s]:   4389.93
SCF: Cycle: 41   G: -2578.413047541765536   dG: -1.092e-04   |Residual|: 1.922e-04   |deigs|: 1.505e-04  t[s]:   4391.75
	Linear fluid (dielectric constant: 78.4, screening length: 5.74355 Bohr) occupying 0.706210 of unit cell:	Completed after 9 iterations at t[s]:   4393.47
	FillingsUpdate:  mu: -0.171251800  nElectrons: 596.002711
	Linear fluid (dielectric constant: 78.4, screening length: 5.74355 Bohr) occupying 0.706218 of unit cell:	Completed after 8 iterations at t[s]:   4483.30
SCF: Cycle: 42   G: -2578.413049432213938   dG: -1.890e-06   |Residual|: 1.667e-04   |deigs|: 2.548e-05  t[s]:   4485.08
	Linear fluid (dielectric constant: 78.4, screening length: 5.74355 Bohr) occupying 0.706210 of unit cell:	Completed after 7 iterations at t[s]:   4486.89
	FillingsUpdate:  mu: -0.171251800  nElectrons: 595.986333
	Linear fluid (dielectric constant: 78.4, screening length: 5.74355 Bohr) occupying 0.706208 of unit cell:	Completed after 10 iterations at t[s]:   4576.83
SCF: Cycle: 43   G: -2578.413041496012283   dG: +7.936e-06   |Residual|: 2.098e-04   |deigs|: 4.631e-05  t[s]:   4579.15
	Linear fluid (dielectric constant: 78.4, screening length: 5.74355 Bohr) occupying 0.706210 of unit cell:	Completed after 10 iterations at t[s]:   4580.99
	FillingsUpdate:  mu: -0.171251800  nElectrons: 596.015831
	Linear fluid (dielectric constant: 78.4, screening length: 5.74355 Bohr) occupying 0.706228 of unit cell:	Completed after 9 iterations at t[s]:   4670.52
SCF: Cycle: 44   G: -2578.413043957999434   dG: -2.462e-06   |Residual|: 2.672e-04   |deigs|: 8.467e-05  t[s]:   4672.82
	Linear fluid (dielectric constant: 78.4, screening length: 5.74355 Bohr) occupying 0.706210 of unit cell:	Completed after 10 iterations at t[s]:   4674.73
	FillingsUpdate:  mu: -0.171251800  nElectrons: 596.009182
	Linear fluid (dielectric constant: 78.4, screening length: 5.74355 Bohr) occupying 0.706222 of unit cell:	Completed after 10 iterations at t[s]:   4764.80
SCF: Cycle: 45   G: -2578.413042973138090   dG: +9.849e-07   |Residual|: 2.469e-04   |deigs|: 3.142e-05  t[s]:   4766.53
	Linear fluid (dielectric constant: 78.4, screening length: 5.74355 Bohr) occupying 0.706210 of unit cell:	Completed after 9 iterations at t[s]:   4768.32
	FillingsUpdate:  mu: -0.171251800  nElectrons: 596.000665
	Linear fluid (dielectric constant: 78.4, screening length: 5.74355 Bohr) occupying 0.706216 of unit cell:	Completed after 3 iterations at t[s]:   4857.96
SCF: Cycle: 46   G: -2578.413050997144182   dG: -8.024e-06   |Residual|: 7.226e-05   |deigs|: 2.881e-05  t[s]:   4860.04
	Linear fluid (dielectric constant: 78.4, screening length: 5.74355 Bohr) occupying 0.706210 of unit cell:	Completed after 2 iterations at t[s]:   4861.07
	FillingsUpdate:  mu: -0.171251800  nElectrons: 595.983464
	Linear fluid (dielectric constant: 78.4, screening length: 5.74355 Bohr) occupying 0.706207 of unit cell:	Completed after 11 iterations at t[s]:   4951.06
SCF: Cycle: 47   G: -2578.413026148090012   dG: +2.485e-05   |Residual|: 3.548e-04   |deigs|: 5.196e-05  t[s]:   4952.95
	Linear fluid (dielectric constant: 78.4, screening length: 5.74355 Bohr) occupying 0.706211 of unit cell:	Completed after 12 iterations at t[s]:   4955.02
	FillingsUpdate:  mu: -0.171251800  nElectrons: 596.010710
	Linear fluid (dielectric constant: 78.4, screening length: 5.74355 Bohr) occupying 0.706224 of unit cell:	Completed after 9 iterations at t[s]:   5043.88
SCF: Cycle: 48   G: -2578.413046897490858   dG: -2.075e-05   |Residual|: 1.910e-04   |deigs|: 7.859e-05  t[s]:   5045.61
	Linear fluid (dielectric constant: 78.4, screening length: 5.74355 Bohr) occupying 0.706211 of unit cell:	Completed after 9 iterations at t[s]:   5047.34
	FillingsUpdate:  mu: -0.171251800  nElectrons: 596.001013
	Linear fluid (dielectric constant: 78.4, screening length: 5.74355 Bohr) occupying 0.706216 of unit cell:	Completed after 5 iterations at t[s]:   5133.39
SCF: Cycle: 49   G: -2578.413049901493196   dG: -3.004e-06   |Residual|: 1.694e-04   |deigs|: 3.045e-05  t[s]:   5135.16
	Linear fluid (dielectric constant: 78.4, screening length: 5.74355 Bohr) occupying 0.706211 of unit cell:	Completed after 3 iterations at t[s]:   5136.20
	FillingsUpdate:  mu: -0.171251800  nElectrons: 595.961976
	Linear fluid (dielectric constant: 78.4, screening length: 5.74355 Bohr) occupying 0.706195 of unit cell:	Completed after 14 iterations at t[s]:   5223.37
SCF: Cycle: 50   G: -2578.412962907293149   dG: +8.699e-05   |Residual|: 5.902e-04   |deigs|: 1.111e-04  t[s]:   5225.21
	Linear fluid (dielectric constant: 78.4, screening length: 5.74355 Bohr) occupying 0.706211 of unit cell:	Completed after 13 iterations at t[s]:   5227.32
	FillingsUpdate:  mu: -0.171251800  nElectrons: 596.011237
	Linear fluid (dielectric constant: 78.4, screening length: 5.74355 Bohr) occupying 0.706225 of unit cell:	Completed after 9 iterations at t[s]:   5313.45
SCF: Cycle: 51   G: -2578.413047031902352   dG: -8.412e-05   |Residual|: 1.879e-04   |deigs|: 1.390e-04  t[s]:   5315.23
	Linear fluid (dielectric constant: 78.4, screening length: 5.74355 Bohr) occupying 0.706212 of unit cell:	Completed after 10 iterations at t[s]:   5317.18
	FillingsUpdate:  mu: -0.171251800  nElectrons: 596.006083
	Linear fluid (dielectric constant: 78.4, screening length: 5.74355 Bohr) occupying 0.706220 of unit cell:	Completed after 8 iterations at t[s]:   5403.97
SCF: Cycle: 52   G: -2578.413046916374697   dG: +1.155e-07   |Residual|: 1.935e-04   |deigs|: 2.173e-05  t[s]:   5405.57
	Linear fluid (dielectric constant: 78.4, screening length: 5.74355 Bohr) occupying 0.706212 of unit cell:	Completed after 8 iterations at t[s]:   5407.05
	FillingsUpdate:  mu: -0.171251800  nElectrons: 595.994368
	Linear fluid (dielectric constant: 78.4, screening length: 5.74355 Bohr) occupying 0.706212 of unit cell:	Completed after 7 iterations at t[s]:   5558.66
SCF: Cycle: 53   G: -2578.413050062903949   dG: -3.147e-06   |Residual|: 9.002e-05   |deigs|: 3.413e-05  t[s]:   5560.69
	Linear fluid (dielectric constant: 78.4, screening length: 5.74355 Bohr) occupying 0.706212 of unit cell:	Completed after 4 iterations at t[s]:   5561.84
	FillingsUpdate:  mu: -0.171251800  nElectrons: 596.055823
	Linear fluid (dielectric constant: 78.4, screening length: 5.74355 Bohr) occupying 0.706261 of unit cell:	Completed after 14 iterations at t[s]:   5658.82
SCF: Cycle: 54   G: -2578.412872853044064   dG: +1.772e-04   |Residual|: 8.487e-04   |deigs|: 1.730e-04  t[s]:   5660.55
	Linear fluid (dielectric constant: 78.4, screening length: 5.74355 Bohr) occupying 0.706212 of unit cell:	Completed after 14 iterations at t[s]:   5662.76
	FillingsUpdate:  mu: -0.171251800  nElectrons: 596.006482
	Linear fluid (dielectric constant: 78.4, screening length: 5.74355 Bohr) occupying 0.706220 of unit cell:	Completed after 10 iterations at t[s]:   5749.33
SCF: Cycle: 55   G: -2578.413048196623095   dG: -1.753e-04   |Residual|: 1.449e-04   |deigs|: 1.399e-04  t[s]:   5751.10
	Linear fluid (dielectric constant: 78.4, screening length: 5.74355 Bohr) occupying 0.706211 of unit cell:	Completed after 10 iterations at t[s]:   5752.92
	FillingsUpdate:  mu: -0.171251800  nElectrons: 596.003766
	Linear fluid (dielectric constant: 78.4, screening length: 5.74355 Bohr) occupying 0.706219 of unit cell:	Completed after 5 iterations at t[s]:   5838.42
SCF: Cycle: 56   G: -2578.413050270339227   dG: -2.074e-06   |Residual|: 9.328e-05   |deigs|: 8.988e-06  t[s]:   5840.29
	Linear fluid (dielectric constant: 78.4, screening length: 5.74355 Bohr) occupying 0.706211 of unit cell:	Completed after 3 iterations at t[s]:   5841.30
	FillingsUpdate:  mu: -0.171251800  nElectrons: 595.963103
	Linear fluid (dielectric constant: 78.4, screening length: 5.74355 Bohr) occupying 0.706195 of unit cell:	Completed after 14 iterations at t[s]:   5936.87
SCF: Cycle: 57   G: -2578.412967804496020   dG: +8.247e-05   |Residual|: 5.923e-04   |deigs|: 1.132e-04  t[s]:   5938.71
	Linear fluid (dielectric constant: 78.4, screening length: 5.74355 Bohr) occupying 0.706211 of unit cell:	Completed after 14 iterations at t[s]:   5940.90
	FillingsUpdate:  mu: -0.171251800  nElectrons: 596.009874
	Linear fluid (dielectric constant: 78.4, screening length: 5.74355 Bohr) occupying 0.706224 of unit cell:	Completed after 9 iterations at t[s]:   6026.98
SCF: Cycle: 58   G: -2578.413047923893828   dG: -8.012e-05   |Residual|: 1.695e-04   |deigs|: 1.301e-04  t[s]:   6028.72
	Linear fluid (dielectric constant: 78.4, screening length: 5.74355 Bohr) occupying 0.706211 of unit cell:	Completed after 9 iterations at t[s]:   6030.43
	FillingsUpdate:  mu: -0.171251800  nElectrons: 596.003228
	Linear fluid (dielectric constant: 78.4, screening length: 5.74355 Bohr) occupying 0.706218 of unit cell:	Completed after 8 iterations at t[s]:   6116.43
SCF: Cycle: 59   G: -2578.413049138971473   dG: -1.215e-06   |Residual|: 1.654e-04   |deigs|: 2.316e-05  t[s]:   6118.37
	Linear fluid (dielectric constant: 78.4, screening length: 5.74355 Bohr) occupying 0.706211 of unit cell:	Completed after 7 iterations at t[s]:   6119.86
	FillingsUpdate:  mu: -0.171251800  nElectrons: 595.985033
	Linear fluid (dielectric constant: 78.4, screening length: 5.74355 Bohr) occupying 0.706207 of unit cell:	Completed after 10 iterations at t[s]:   6206.01
SCF: Cycle: 60   G: -2578.413040385775730   dG: +8.753e-06   |Residual|: 2.213e-04   |deigs|: 5.124e-05  t[s]:   6207.68
	Linear fluid (dielectric constant: 78.4, screening length: 5.74355 Bohr) occupying 0.706211 of unit cell:	Completed after 10 iterations at t[s]:   6209.43
	FillingsUpdate:  mu: -0.171251800  nElectrons: 596.015855
	Linear fluid (dielectric constant: 78.4, screening length: 5.74355 Bohr) occupying 0.706229 of unit cell:	Completed after 10 iterations at t[s]:   6295.83
SCF: Cycle: 61   G: -2578.413044382137741   dG: -3.996e-06   |Residual|: 2.814e-04   |deigs|: 8.866e-05  t[s]:   6297.65
	Linear fluid (dielectric constant: 78.4, screening length: 5.74355 Bohr) occupying 0.706211 of unit cell:	Completed after 9 iterations at t[s]:   6299.36
	FillingsUpdate:  mu: -0.171251800  nElectrons: 596.008269
	Linear fluid (dielectric constant: 78.4, screening length: 5.74355 Bohr) occupying 0.706222 of unit cell:	Completed after 9 iterations at t[s]:   6385.27
SCF: Cycle: 62   G: -2578.413045759543820   dG: -1.377e-06   |Residual|: 2.069e-04   |deigs|: 3.066e-05  t[s]:   6387.13
	Linear fluid (dielectric constant: 78.4, screening length: 5.74355 Bohr) occupying 0.706211 of unit cell:	Completed after 9 iterations at t[s]:   6388.77
	FillingsUpdate:  mu: -0.171251800  nElectrons: 595.998954
	Linear fluid (dielectric constant: 78.4, screening length: 5.74355 Bohr) occupying 0.706215 of unit cell:	Completed after 3 iterations at t[s]:   6474.45
SCF: Cycle: 63   G: -2578.413050851077969   dG: -5.092e-06   |Residual|: 1.031e-04   |deigs|: 2.987e-05  t[s]:   6476.06
	Linear fluid (dielectric constant: 78.4, screening length: 5.74355 Bohr) occupying 0.706211 of unit cell:	Completed after 3 iterations at t[s]:   6477.06
	FillingsUpdate:  mu: -0.171251800  nElectrons: 595.991286
	Linear fluid (dielectric constant: 78.4, screening length: 5.74355 Bohr) occupying 0.706212 of unit cell:	Completed after 9 iterations at t[s]:   6563.22
SCF: Cycle: 64   G: -2578.413042833423788   dG: +8.018e-06   |Residual|: 2.260e-04   |deigs|: 2.999e-05  t[s]:   6564.89
	Linear fluid (dielectric constant: 78.4, screening length: 5.74355 Bohr) occupying 0.706211 of unit cell:	Completed after 9 iterations at t[s]:   6566.55
	FillingsUpdate:  mu: -0.171251800  nElectrons: 596.014414
	Linear fluid (dielectric constant: 78.4, screening length: 5.74355 Bohr) occupying 0.706227 of unit cell:	Completed after 10 iterations at t[s]:   6652.80
SCF: Cycle: 65   G: -2578.413042941823278   dG: -1.084e-07   |Residual|: 2.196e-04   |deigs|: 6.622e-05  t[s]:   6654.65
	Linear fluid (dielectric constant: 78.4, screening length: 5.74355 Bohr) occupying 0.706212 of unit cell:	Completed after 10 iterations at t[s]:   6656.39
	FillingsUpdate:  mu: -0.171251800  nElectrons: 596.002752
	Linear fluid (dielectric constant: 78.4, screening length: 5.74355 Bohr) occupying 0.706218 of unit cell:	Completed after 8 iterations at t[s]:   6798.26
SCF: Cycle: 66   G: -2578.413048599003105   dG: -5.657e-06   |Residual|: 1.997e-04   |deigs|: 3.742e-05  t[s]:   6800.15
	Linear fluid (dielectric constant: 78.4, screening length: 5.74355 Bohr) occupying 0.706211 of unit cell:	Completed after 8 iterations at t[s]:   6801.73
	FillingsUpdate:  mu: -0.171251800  nElectrons: 595.993360
	Linear fluid (dielectric constant: 78.4, screening length: 5.74355 Bohr) occupying 0.706212 of unit cell:	Completed after 9 iterations at t[s]:   6887.76
SCF: Cycle: 67   G: -2578.413049021767165   dG: -4.228e-07   |Residual|: 1.014e-04   |deigs|: 2.883e-05  t[s]:   6889.49
	Linear fluid (dielectric constant: 78.4, screening length: 5.74355 Bohr) occupying 0.706212 of unit cell:	Completed after 9 iterations at t[s]:   6891.10
	FillingsUpdate:  mu: -0.171251800  nElectrons: 596.014230
	Linear fluid (dielectric constant: 78.4, screening length: 5.74355 Bohr) occupying 0.706227 of unit cell:	Completed after 10 iterations at t[s]:   6986.10
SCF: Cycle: 68   G: -2578.413044790975164   dG: +4.231e-06   |Residual|: 2.193e-04   |deigs|: 5.962e-05  t[s]:   6987.88
	Linear fluid (dielectric constant: 78.4, screening length: 5.74355 Bohr) occupying 0.706212 of unit cell:	Completed after 9 iterations at t[s]:   6989.58
	FillingsUpdate:  mu: -0.171251800  nElectrons: 596.006505
	Linear fluid (dielectric constant: 78.4, screening length: 5.74355 Bohr) occupying 0.706220 of unit cell:	Completed after 9 iterations at t[s]:   7075.39
SCF: Cycle: 69   G: -2578.413044788316711   dG: +2.658e-09   |Residual|: 2.366e-04   |deigs|: 3.067e-05  t[s]:   7077.23
	Linear fluid (dielectric constant: 78.4, screening length: 5.74355 Bohr) occupying 0.706212 of unit cell:	Completed after 9 iterations at t[s]:   7078.95
	FillingsUpdate:  mu: -0.171251800  nElectrons: 595.999772
	Linear fluid (dielectric constant: 78.4, screening length: 5.74355 Bohr) occupying 0.706216 of unit cell:	Completed after 2 iterations at t[s]:   7219.71
SCF: Cycle: 70   G: -2578.413051223722505   dG: -6.435e-06   |Residual|: 7.518e-05   |deigs|: 2.539e-05  t[s]:   7221.40
	Linear fluid (dielectric constant: 78.4, screening length: 5.74355 Bohr) occupying 0.706213 of unit cell:	Completed after 0 iterations at t[s]:   7222.13
	FillingsUpdate:  mu: -0.171251800  nElectrons: 595.999818
	Linear fluid (dielectric constant: 78.4, screening length: 5.74355 Bohr) occupying 0.706217 of unit cell:	Completed after 4 iterations at t[s]:   7308.49
SCF: Cycle: 71   G: -2578.413050412202665   dG: +8.115e-07   |Residual|: 1.902e-04   |deigs|: 1.491e-05  t[s]:   7310.25
	Linear fluid (dielectric constant: 78.4, screening length: 5.74355 Bohr) occupying 0.706213 of unit cell:	Completed after 3 iterations at t[s]:   7311.33
	FillingsUpdate:  mu: -0.171251800  nElectrons: 595.991781
	Linear fluid (dielectric constant: 78.4, screening length: 5.74355 Bohr) occupying 0.706212 of unit cell:	Completed after 9 iterations at t[s]:   7406.43
SCF: Cycle: 72   G: -2578.413044676359277   dG: +5.736e-06   |Residual|: 1.873e-04   |deigs|: 2.828e-05  t[s]:   7408.29
	Linear fluid (dielectric constant: 78.4, screening length: 5.74355 Bohr) occupying 0.706213 of unit cell:	Completed after 8 iterations at t[s]:   7409.83
	FillingsUpdate:  mu: -0.171251800  nElectrons: 596.016069
	Linear fluid (dielectric constant: 78.4, screening length: 5.74355 Bohr) occupying 0.706228 of unit cell:	Completed after 10 iterations at t[s]:   7496.65
SCF: Cycle: 73   G: -2578.413041258065732   dG: +3.418e-06   |Residual|: 2.329e-04   |deigs|: 6.928e-05  t[s]:   7498.31
	Linear fluid (dielectric constant: 78.4, screening length: 5.74355 Bohr) occupying 0.706213 of unit cell:	Completed after 10 iterations at t[s]:   7500.03
	FillingsUpdate:  mu: -0.171251800  nElectrons: 596.002333
	Linear fluid (dielectric constant: 78.4, screening length: 5.74355 Bohr) occupying 0.706217 of unit cell:	Completed after 8 iterations at t[s]:   7585.14
SCF: Cycle: 74   G: -2578.413048046849326   dG: -6.789e-06   |Residual|: 2.183e-04   |deigs|: 4.445e-05  t[s]:   7586.86
	Linear fluid (dielectric constant: 78.4, screening length: 5.74355 Bohr) occupying 0.706213 of unit cell:	Completed after 8 iterations at t[s]:   7588.41
	FillingsUpdate:  mu: -0.171251800  nElectrons: 595.992307
	Linear fluid (dielectric constant: 78.4, screening length: 5.74355 Bohr) occupying 0.706211 of unit cell:	Completed after 9 iterations at t[s]:   7674.68
SCF: Cycle: 75   G: -2578.413047717149766   dG: +3.297e-07   |Residual|: 1.239e-04   |deigs|: 3.181e-05  t[s]:   7676.40
	Linear fluid (dielectric constant: 78.4, screening length: 5.74355 Bohr) occupying 0.706214 of unit cell:	Completed after 9 iterations at t[s]:   7678.10
	FillingsUpdate:  mu: -0.171251800  nElectrons: 596.015826
	Linear fluid (dielectric constant: 78.4, screening length: 5.74355 Bohr) occupying 0.706229 of unit cell:	Completed after 10 iterations at t[s]:   7774.89
SCF: Cycle: 76   G: -2578.413042755159040   dG: +4.962e-06   |Residual|: 2.318e-04   |deigs|: 6.648e-05  t[s]:   7776.61
	Linear fluid (dielectric constant: 78.4, screening length: 5.74355 Bohr) occupying 0.706213 of unit cell:	Completed after 9 iterations at t[s]:   7778.26
	FillingsUpdate:  mu: -0.171251800  nElectrons: 596.004692
	Linear fluid (dielectric constant: 78.4, screening length: 5.74355 Bohr) occupying 0.706218 of unit cell:	Completed after 9 iterations at t[s]:   7865.14
SCF: Cycle: 77   G: -2578.413045439042889   dG: -2.684e-06   |Residual|: 2.519e-04   |deigs|: 3.967e-05  t[s]:   7867.04
	Linear fluid (dielectric constant: 78.4, screening length: 5.74355 Bohr) occupying 0.706214 of unit cell:	Completed after 8 iterations at t[s]:   7868.62
	FillingsUpdate:  mu: -0.171251800  nElectrons: 595.994698
	Linear fluid (dielectric constant: 78.4, screening length: 5.74355 Bohr) occupying 0.706212 of unit cell:	Completed after 8 iterations at t[s]:   7954.60
SCF: Cycle: 78   G: -2578.413049335431424   dG: -3.896e-06   |Residual|: 1.156e-04   |deigs|: 3.436e-05  t[s]:   7956.32
	Linear fluid (dielectric constant: 78.4, screening length: 5.74355 Bohr) occupying 0.706213 of unit cell:	Completed after 8 iterations at t[s]:   7957.86
	FillingsUpdate:  mu: -0.171251800  nElectrons: 596.019633
	Linear fluid (dielectric constant: 78.4, screening length: 5.74355 Bohr) occupying 0.706232 of unit cell:	Completed after 11 iterations at t[s]:   8043.58
SCF: Cycle: 79   G: -2578.413035923889765   dG: +1.341e-05   |Residual|: 2.847e-04   |deigs|: 7.094e-05  t[s]:   8045.40
	Linear fluid (dielectric constant: 78.4, screening length: 5.74355 Bohr) occupying 0.706213 of unit cell:	Completed after 12 iterations at t[s]:   8047.45
	FillingsUpdate:  mu: -0.171251800  nElectrons: 596.006727
	Linear fluid (dielectric constant: 78.4, screening length: 5.74355 Bohr) occupying 0.706220 of unit cell:	Completed after 9 iterations at t[s]:   8133.88
SCF: Cycle: 80   G: -2578.413046324065363   dG: -1.040e-05   |Residual|: 1.789e-04   |deigs|: 4.057e-05  t[s]:   8135.59
	Linear fluid (dielectric constant: 78.4, screening length: 5.74355 Bohr) occupying 0.706214 of unit cell:	Completed after 9 iterations at t[s]:   8137.28
	FillingsUpdate:  mu: -0.171251800  nElectrons: 596.002189
	Linear fluid (dielectric constant: 78.4, screening length: 5.74355 Bohr) occupying 0.706217 of unit cell:	Completed after 3 iterations at t[s]:   8222.88
SCF: Cycle: 81   G: -2578.413051138977153   dG: -4.815e-06   |Residual|: 6.797e-05   |deigs|: 1.799e-05  t[s]:   8224.76
	Linear fluid (dielectric constant: 78.4, screening length: 5.74355 Bohr) occupying 0.706214 of unit cell:	Completed after 1 iterations at t[s]:   8225.61
	FillingsUpdate:  mu: -0.171251800  nElectrons: 595.982281
	Linear fluid (dielectric constant: 78.4, screening length: 5.74355 Bohr) occupying 0.706206 of unit cell:	Completed after 12 iterations at t[s]:   8312.31
SCF: Cycle: 82   G: -2578.413032763796764   dG: +1.838e-05   |Residual|: 2.789e-04   |deigs|: 5.760e-05  t[s]:   8314.01
	Linear fluid (dielectric constant: 78.4, screening length: 5.74355 Bohr) occupying 0.706214 of unit cell:	Completed after 12 iterations at t[s]:   8316.04
	FillingsUpdate:  mu: -0.171251800  nElectrons: 596.011893
	Linear fluid (dielectric constant: 78.4, screening length: 5.74355 Bohr) occupying 0.706226 of unit cell:	Completed after 9 iterations at t[s]:   8402.78
SCF: Cycle: 83   G: -2578.413046757308621   dG: -1.399e-05   |Residual|: 2.262e-04   |deigs|: 8.720e-05  t[s]:   8404.43
	Linear fluid (dielectric constant: 78.4, screening length: 5.74355 Bohr) occupying 0.706214 of unit cell:	Completed after 9 iterations at t[s]:   8406.08
	FillingsUpdate:  mu: -0.171251800  nElectrons: 596.006818
	Linear fluid (dielectric constant: 78.4, screening length: 5.74355 Bohr) occupying 0.706221 of unit cell:	Completed after 8 iterations at t[s]:   8491.67
SCF: Cycle: 84   G: -2578.413046744840358   dG: +1.247e-08   |Residual|: 1.878e-04   |deigs|: 2.279e-05  t[s]:   8493.45
	Linear fluid (dielectric constant: 78.4, screening length: 5.74355 Bohr) occupying 0.706214 of unit cell:	Completed after 9 iterations at t[s]:   8495.11
	FillingsUpdate:  mu: -0.171251800  nElectrons: 595.999329
	Linear fluid (dielectric constant: 78.4, screening length: 5.74355 Bohr) occupying 0.706215 of unit cell:	Completed after 3 iterations at t[s]:   8634.35
SCF: Cycle: 85   G: -2578.413051075050589   dG: -4.330e-06   |Residual|: 7.665e-05   |deigs|: 2.344e-05  t[s]:   8636.27
	Linear fluid (dielectric constant: 78.4, screening length: 5.74355 Bohr) occupying 0.706214 of unit cell:	Completed after 1 iterations at t[s]:   8637.09
	FillingsUpdate:  mu: -0.171251800  nElectrons: 595.991449
	Linear fluid (dielectric constant: 78.4, screening length: 5.74355 Bohr) occupying 0.706213 of unit cell:	Completed after 11 iterations at t[s]:   8724.28
SCF: Cycle: 86   G: -2578.413039921073050   dG: +1.115e-05   |Residual|: 2.998e-04   |deigs|: 3.338e-05  t[s]:   8726.07
	Linear fluid (dielectric constant: 78.4, screening length: 5.74355 Bohr) occupying 0.706214 of unit cell:	Completed after 10 iterations at t[s]:   8727.88
	FillingsUpdate:  mu: -0.171251800  nElectrons: 596.016007
	Linear fluid (dielectric constant: 78.4, screening length: 5.74355 Bohr) occupying 0.706228 of unit cell:	Completed after 10 iterations at t[s]:   8815.22
SCF: Cycle: 87   G: -2578.413041564645937   dG: -1.644e-06   |Residual|: 2.450e-04   |deigs|: 7.003e-05  t[s]:   8816.85
	Linear fluid (dielectric constant: 78.4, screening length: 5.74355 Bohr) occupying 0.706214 of unit cell:	Completed after 10 iterations at t[s]:   8818.61
	FillingsUpdate:  mu: -0.171251800  nElectrons: 596.002961
	Linear fluid (dielectric constant: 78.4, screening length: 5.74355 Bohr) occupying 0.706217 of unit cell:	Completed after 8 iterations at t[s]:   8904.87
SCF: Cycle: 88   G: -2578.413047233502311   dG: -5.669e-06   |Residual|: 2.314e-04   |deigs|: 4.114e-05  t[s]:   8906.50
	Linear fluid (dielectric constant: 78.4, screening length: 5.74355 Bohr) occupying 0.706214 of unit cell:	Completed after 8 iterations at t[s]:   8907.99
	FillingsUpdate:  mu: -0.171251800  nElectrons: 595.994096
	Linear fluid (dielectric constant: 78.4, screening length: 5.74355 Bohr) occupying 0.706212 of unit cell:	Completed after 8 iterations at t[s]:   8994.32
SCF: Cycle: 89   G: -2578.413049029988997   dG: -1.796e-06   |Residual|: 1.097e-04   |deigs|: 2.988e-05  t[s]:   8996.02
	Linear fluid (dielectric constant: 78.4, screening length: 5.74355 Bohr) occupying 0.706214 of unit cell:	Completed after 9 iterations at t[s]:   8997.69
	FillingsUpdate:  mu: -0.171251800  nElectrons: 596.014522
	Linear fluid (dielectric constant: 78.4, screening length: 5.74355 Bohr) occupying 0.706228 of unit cell:	Completed after 9 iterations at t[s]:   9083.92
SCF: Cycle: 90   G: -2578.413043687421577   dG: +5.343e-06   |Residual|: 2.139e-04   |deigs|: 5.809e-05  t[s]:   9085.69
	Linear fluid (dielectric constant: 78.4, screening length: 5.74355 Bohr) occupying 0.706214 of unit cell:	Completed after 10 iterations at t[s]:   9087.50
	FillingsUpdate:  mu: -0.171251800  nElectrons: 596.004185
	Linear fluid (dielectric constant: 78.4, screening length: 5.74355 Bohr) occupying 0.706218 of unit cell:	Completed after 8 iterations at t[s]:   9173.65
SCF: Cycle: 91   G: -2578.413046777242471   dG: -3.090e-06   |Residual|: 2.157e-04   |deigs|: 3.644e-05  t[s]:   9175.25
	Linear fluid (dielectric constant: 78.4, screening length: 5.74355 Bohr) occupying 0.706214 of unit cell:	Completed after 9 iterations at t[s]:   9176.90
	FillingsUpdate:  mu: -0.171251800  nElectrons: 595.997177
	Linear fluid (dielectric constant: 78.4, screening length: 5.74355 Bohr) occupying 0.706214 of unit cell:	Completed after 5 iterations at t[s]:   9263.03
SCF: Cycle: 92   G: -2578.413050717581882   dG: -3.940e-06   |Residual|: 8.653e-05   |deigs|: 2.580e-05  t[s]:   9264.82
	Linear fluid (dielectric constant: 78.4, screening length: 5.74355 Bohr) occupying 0.706215 of unit cell:	Completed after 3 iterations at t[s]:   9265.82
	FillingsUpdate:  mu: -0.171251800  nElectrons: 596.039079
	Linear fluid (dielectric constant: 78.4, screening length: 5.74355 Bohr) occupying 0.706246 of unit cell:	Completed after 14 iterations at t[s]:   9353.03
SCF: Cycle: 93   G: -2578.412963201510138   dG: +8.752e-05   |Residual|: 5.928e-04   |deigs|: 1.192e-04  t[s]:   9354.66
	Linear fluid (dielectric constant: 78.4, screening length: 5.74355 Bohr) occupying 0.706215 of unit cell:	Completed after 14 iterations at t[s]:   9356.84
	FillingsUpdate:  mu: -0.171251800  nElectrons: 596.007332
	Linear fluid (dielectric constant: 78.4, screening length: 5.74355 Bohr) occupying 0.706221 of unit cell:	Completed after 10 iterations at t[s]:   9443.63
SCF: Cycle: 94   G: -2578.413047980548072   dG: -8.478e-05   |Residual|: 1.303e-04   |deigs|: 9.111e-05  t[s]:   9445.46
	Linear fluid (dielectric constant: 78.4, screening length: 5.74355 Bohr) occupying 0.706214 of unit cell:	Completed after 8 iterations at t[s]:   9447.05
	FillingsUpdate:  mu: -0.171251800  nElectrons: 595.997354
	Linear fluid (dielectric constant: 78.4, screening length: 5.74355 Bohr) occupying 0.706214 of unit cell:	Completed after 4 iterations at t[s]:   9532.62
SCF: Cycle: 95   G: -2578.413051015614201   dG: -3.035e-06   |Residual|: 1.069e-04   |deigs|: 2.801e-05  t[s]:   9534.34
	Linear fluid (dielectric constant: 78.4, screening length: 5.74355 Bohr) occupying 0.706215 of unit cell:	Completed after 2 iterations at t[s]:   9535.28
	FillingsUpdate:  mu: -0.171251800  nElectrons: 596.001627
	Linear fluid (dielectric constant: 78.4, screening length: 5.74355 Bohr) occupying 0.706219 of unit cell:	Completed after 3 iterations at t[s]:   9621.17
SCF: Cycle: 96   G: -2578.413050274367379   dG: +7.412e-07   |Residual|: 1.628e-04   |deigs|: 2.429e-05  t[s]:   9622.97
	Linear fluid (dielectric constant: 78.4, screening length: 5.74355 Bohr) occupying 0.706215 of unit cell:	Completed after 3 iterations at t[s]:   9624.04
	FillingsUpdate:  mu: -0.171251800  nElectrons: 596.021887
	Linear fluid (dielectric constant: 78.4, screening length: 5.74355 Bohr) occupying 0.706232 of unit cell:	Completed after 12 iterations at t[s]:   9719.57
SCF: Cycle: 97   G: -2578.413021514637421   dG: +2.876e-05   |Residual|: 3.522e-04   |deigs|: 6.211e-05  t[s]:   9721.43
	Linear fluid (dielectric constant: 78.4, screening length: 5.74355 Bohr) occupying 0.706215 of unit cell:	Completed after 12 iterations at t[s]:   9723.42
	FillingsUpdate:  mu: -0.171251800  nElectrons: 596.004734
	Linear fluid (dielectric constant: 78.4, screening length: 5.74355 Bohr) occupying 0.706220 of unit cell:	Completed after 5 iterations at t[s]:   9809.30
SCF: Cycle: 98   G: -2578.413049445641263   dG: -2.793e-05   |Residual|: 1.013e-04   |deigs|: 5.128e-05  t[s]:   9811.06
	Linear fluid (dielectric constant: 78.4, screening length: 5.74355 Bohr) occupying 0.706215 of unit cell:	Completed after 4 iterations at t[s]:   9812.24
	FillingsUpdate:  mu: -0.171251800  nElectrons: 595.961840
	Linear fluid (dielectric constant: 78.4, screening length: 5.74355 Bohr) occupying 0.706193 of unit cell:	Completed after 13 iterations at t[s]:   9898.95
SCF: Cycle: 99   G: -2578.412977389791195   dG: +7.206e-05   |Residual|: 5.362e-04   |deigs|: 1.182e-04  t[s]:   9900.77
	Linear fluid (dielectric constant: 78.4, screening length: 5.74355 Bohr) occupying 0.706215 of unit cell:	Completed after 14 iterations at t[s]:   9902.98
	FillingsUpdate:  mu: -0.171251800  nElectrons: 596.010098
	Linear fluid (dielectric constant: 78.4, screening length: 5.74355 Bohr) occupying 0.706224 of unit cell:	Completed after 9 iterations at t[s]:   9989.32
SCF: Cycle: 100   G: -2578.413047910513797   dG: -7.052e-05   |Residual|: 1.687e-04   |deigs|: 1.359e-04  t[s]:   9991.17
	Linear fluid (dielectric constant: 78.4, screening length: 5.74355 Bohr) occupying 0.706215 of unit cell:	Completed after 9 iterations at t[s]:   9992.86
	FillingsUpdate:  mu: -0.171251800  nElectrons: 596.004058
	Linear fluid (dielectric constant: 78.4, screening length: 5.74355 Bohr) occupying 0.706219 of unit cell:	Completed after 9 iterations at t[s]:  10078.84
SCF: Cycle: 101   G: -2578.413048664560847   dG: -7.540e-07   |Residual|: 1.529e-04   |deigs|: 2.300e-05  t[s]:  10080.56
	Linear fluid (dielectric constant: 78.4, screening length: 5.74355 Bohr) occupying 0.706215 of unit cell:	Completed after 8 iterations at t[s]:  10082.16
	FillingsUpdate:  mu: -0.171251800  nElectrons: 595.994605
	Linear fluid (dielectric constant: 78.4, screening length: 5.74355 Bohr) occupying 0.706213 of unit cell:	Completed after 8 iterations at t[s]:  10167.90
SCF: Cycle: 102   G: -2578.413050106723858   dG: -1.442e-06   |Residual|: 7.828e-05   |deigs|: 2.821e-05  t[s]:  10169.73
	Linear fluid (dielectric constant: 78.4, screening length: 5.74355 Bohr) occupying 0.706215 of unit cell:	Completed after 5 iterations at t[s]:  10170.93
	FillingsUpdate:  mu: -0.171251800  nElectrons: 596.038067
	Linear fluid (dielectric constant: 78.4, screening length: 5.74355 Bohr) occupying 0.706245 of unit cell:	Completed after 14 iterations at t[s]:  10258.07
SCF: Cycle: 103   G: -2578.412976044403877   dG: +7.406e-05   |Residual|: 5.487e-04   |deigs|: 1.214e-04  t[s]:  10259.92
	Linear fluid (dielectric constant: 78.4, screening length: 5.74355 Bohr) occupying 0.706215 of unit cell:	Completed after 14 iterations at t[s]:  10262.15
	FillingsUpdate:  mu: -0.171251800  nElectrons: 596.007017
	Linear fluid (dielectric constant: 78.4, screening length: 5.74355 Bohr) occupying 0.706221 of unit cell:	Completed after 10 iterations at t[s]:  10348.57
SCF: Cycle: 104   G: -2578.413048069702654   dG: -7.203e-05   |Residual|: 1.203e-04   |deigs|: 8.708e-05  t[s]:  10350.49
	Linear fluid (dielectric constant: 78.4, screening length: 5.74355 Bohr) occupying 0.706215 of unit cell:	Completed after 8 iterations at t[s]:  10352.10
	FillingsUpdate:  mu: -0.171251800  nElectrons: 595.997974
	Linear fluid (dielectric constant: 78.4, screening length: 5.74355 Bohr) occupying 0.706214 of unit cell:	Completed after 3 iterations at t[s]:  10437.13
SCF: Cycle: 105   G: -2578.413051129971336   dG: -3.060e-06   |Residual|: 8.638e-05   |deigs|: 2.515e-05  t[s]:  10438.79
	Linear fluid (dielectric constant: 78.4, screening length: 5.74355 Bohr) occupying 0.706215 of unit cell:	Completed after 1 iterations at t[s]:  10439.62
	FillingsUpdate:  mu: -0.171251800  nElectrons: 596.001285
	Linear fluid (dielectric constant: 78.4, screening length: 5.74355 Bohr) occupying 0.706218 of unit cell:	Completed after 4 iterations at t[s]:  10525.49
SCF: Cycle: 106   G: -2578.413049778760978   dG: +1.351e-06   |Residual|: 1.924e-04   |deigs|: 2.350e-05  t[s]:  10527.34
	Linear fluid (dielectric constant: 78.4, screening length: 5.74355 Bohr) occupying 0.706215 of unit cell:	Completed after 4 iterations at t[s]:  10528.52
	FillingsUpdate:  mu: -0.171251800  nElectrons: 596.025560
	Linear fluid (dielectric constant: 78.4, screening length: 5.74355 Bohr) occupying 0.706235 of unit cell:	Completed after 12 iterations at t[s]:  10624.23
SCF: Cycle: 107   G: -2578.413012270818854   dG: +3.751e-05   |Residual|: 3.993e-04   |deigs|: 7.299e-05  t[s]:  10625.91
	Linear fluid (dielectric constant: 78.4, screening length: 5.74355 Bohr) occupying 0.706215 of unit cell:	Completed after 12 iterations at t[s]:  10627.90
	FillingsUpdate:  mu: -0.171251800  nElectrons: 596.003810
	Linear fluid (dielectric constant: 78.4, screening length: 5.74355 Bohr) occupying 0.706219 of unit cell:	Completed after 9 iterations at t[s]:  10714.45
SCF: Cycle: 108   G: -2578.413049390312608   dG: -3.712e-05   |Residual|: 1.080e-04   |deigs|: 6.413e-05  t[s]:  10716.45
	Linear fluid (dielectric constant: 78.4, screening length: 5.74355 Bohr) occupying 0.706215 of unit cell:	Completed after 5 iterations at t[s]:  10717.75
	FillingsUpdate:  mu: -0.171251800  nElectrons: 595.971285
	Linear fluid (dielectric constant: 78.4, screening length: 5.74355 Bohr) occupying 0.706198 of unit cell:	Completed after 12 iterations at t[s]:  10804.62
SCF: Cycle: 109   G: -2578.413013734458218   dG: +3.566e-05   |Residual|: 3.914e-04   |deigs|: 8.825e-05  t[s]:  10806.43
	Linear fluid (dielectric constant: 78.4, screening length: 5.74355 Bohr) occupying 0.706215 of unit cell:	Completed after 12 iterations at t[s]:  10808.37
	FillingsUpdate:  mu: -0.171251800  nElectrons: 596.012511
	Linear fluid (dielectric constant: 78.4, screening length: 5.74355 Bohr) occupying 0.706227 of unit cell:	Completed after 10 iterations at t[s]:  10895.05
SCF: Cycle: 110   G: -2578.413047152788295   dG: -3.342e-05   |Residual|: 2.592e-04   |deigs|: 1.176e-04  t[s]:  10896.76
	Linear fluid (dielectric constant: 78.4, screening length: 5.74355 Bohr) occupying 0.706215 of unit cell:	Completed after 9 iterations at t[s]:  10898.43
	FillingsUpdate:  mu: -0.171251800  nElectrons: 596.002649
	Linear fluid (dielectric constant: 78.4, screening length: 5.74355 Bohr) occupying 0.706219 of unit cell:	Completed after 3 iterations at t[s]:  10984.67
SCF: Cycle: 111   G: -2578.413050745276450   dG: -3.592e-06   |Residual|: 1.158e-04   |deigs|: 3.113e-05  t[s]:  10986.61
	Linear fluid (dielectric constant: 78.4, screening length: 5.74355 Bohr) occupying 0.706215 of unit cell:	Completed after 3 iterations at t[s]:  10987.75
	FillingsUpdate:  mu: -0.171251800  nElectrons: 595.990018
	Linear fluid (dielectric constant: 78.4, screening length: 5.74355 Bohr) occupying 0.706210 of unit cell:	Completed after 10 iterations at t[s]:  11074.81
SCF: Cycle: 112   G: -2578.413043275668770   dG: +7.470e-06   |Residual|: 1.915e-04   |deigs|: 3.732e-05  t[s]:  11076.55
	Linear fluid (dielectric constant: 78.4, screening length: 5.74355 Bohr) occupying 0.706215 of unit cell:	Completed after 9 iterations at t[s]:  11078.27
	FillingsUpdate:  mu: -0.171251800  nElectrons: 596.013198
	Linear fluid (dielectric constant: 78.4, screening length: 5.74355 Bohr) occupying 0.706227 of unit cell:	Completed after 10 iterations at t[s]:  11164.18
SCF: Cycle: 113   G: -2578.413044766416533   dG: -1.491e-06   |Residual|: 2.104e-04   |deigs|: 6.640e-05  t[s]:  11165.94
	Linear fluid (dielectric constant: 78.4, screening length: 5.74355 Bohr) occupying 0.706215 of unit cell:	Completed after 9 iterations at t[s]:  11167.65
	FillingsUpdate:  mu: -0.171251800  nElectrons: 596.002351
	Linear fluid (dielectric constant: 78.4, screening length: 5.74355 Bohr) occupying 0.706217 of unit cell:	Completed after 7 iterations at t[s]:  11254.13
SCF: Cycle: 114   G: -2578.413048547091876   dG: -3.781e-06   |Residual|: 1.883e-04   |deigs|: 3.720e-05  t[s]:  11255.85
	Linear fluid (dielectric constant: 78.4, screening length: 5.74355 Bohr) occupying 0.706215 of unit cell:	Completed after 7 iterations at t[s]:  11257.62
	FillingsUpdate:  mu: -0.171251800  nElectrons: 595.977924
	Linear fluid (dielectric constant: 78.4, screening length: 5.74355 Bohr) occupying 0.706203 of unit cell:	Completed after 12 iterations at t[s]:  11344.81
SCF: Cycle: 115   G: -2578.413026617853120   dG: +2.193e-05   |Residual|: 3.097e-04   |deigs|: 6.857e-05  t[s]:  11346.61
	Linear fluid (dielectric constant: 78.4, screening length: 5.74355 Bohr) occupying 0.706215 of unit cell:	Completed after 12 iterations at t[s]:  11348.62
	FillingsUpdate:  mu: -0.171251800  nElectrons: 596.012524
	Linear fluid (dielectric constant: 78.4, screening length: 5.74355 Bohr) occupying 0.706226 of unit cell:	Completed after 9 iterations at t[s]:  11435.18
SCF: Cycle: 116   G: -2578.413046629509154   dG: -2.001e-05   |Residual|: 2.130e-04   |deigs|: 9.807e-05  t[s]:  11437.01
	Linear fluid (dielectric constant: 78.4, screening length: 5.74355 Bohr) occupying 0.706215 of unit cell:	Completed after 10 iterations at t[s]:  11438.84
	FillingsUpdate:  mu: -0.171251800  nElectrons: 596.007864
	Linear fluid (dielectric constant: 78.4, screening length: 5.74355 Bohr) occupying 0.706221 of unit cell:	Completed after 8 iterations at t[s]:  11525.24
SCF: Cycle: 117   G: -2578.413045561929721   dG: +1.068e-06   |Residual|: 1.857e-04   |deigs|: 2.254e-05  t[s]:  11527.26
	Linear fluid (dielectric constant: 78.4, screening length: 5.74355 Bohr) occupying 0.706215 of unit cell:	Completed after 8 iterations at t[s]:  11528.85
	FillingsUpdate:  mu: -0.171251800  nElectrons: 595.998388
	Linear fluid (dielectric constant: 78.4, screening length: 5.74355 Bohr) occupying 0.706215 of unit cell:	Completed after 3 iterations at t[s]:  11614.79
SCF: Cycle: 118   G: -2578.413051099867971   dG: -5.538e-06   |Residual|: 7.887e-05   |deigs|: 2.911e-05  t[s]:  11616.63
	Linear fluid (dielectric constant: 78.4, screening length: 5.74355 Bohr) occupying 0.706215 of unit cell:	Completed after 1 iterations at t[s]:  11617.42
	FillingsUpdate:  mu: -0.171251800  nElectrons: 596.003885
	Linear fluid (dielectric constant: 78.4, screening length: 5.74355 Bohr) occupying 0.706221 of unit cell:	Completed after 3 iterations at t[s]:  11703.47
SCF: Cycle: 119   G: -2578.413049741449868   dG: +1.358e-06   |Residual|: 1.871e-04   |deigs|: 3.153e-05  t[s]:  11705.14
	Linear fluid (dielectric constant: 78.4, screening length: 5.74355 Bohr) occupying 0.706215 of unit cell:	Completed after 5 iterations at t[s]:  11706.41
	FillingsUpdate:  mu: -0.171251800  nElectrons: 595.997483
	Linear fluid (dielectric constant: 78.4, screening length: 5.74355 Bohr) occupying 0.706215 of unit cell:	Completed after 3 iterations at t[s]:  11792.03
SCF: Cycle: 120   G: -2578.413050538757943   dG: -7.973e-07   |Residual|: 1.035e-04   |deigs|: 2.902e-05  t[s]:  11793.88
	Linear fluid (dielectric constant: 78.4, screening length: 5.74355 Bohr) occupying 0.706215 of unit cell:	Completed after 3 iterations at t[s]:  11794.93
	FillingsUpdate:  mu: -0.171251800  nElectrons: 596.028317
	Linear fluid (dielectric constant: 78.4, screening length: 5.74355 Bohr) occupying 0.706237 of unit cell:	Completed after 12 iterations at t[s]:  11891.07
SCF: Cycle: 121   G: -2578.413003466601822   dG: +4.707e-05   |Residual|: 4.397e-04   |deigs|: 8.714e-05  t[s]:  11892.76
	Linear fluid (dielectric constant: 78.4, screening length: 5.74355 Bohr) occupying 0.706215 of unit cell:	Completed after 12 iterations at t[s]:  11894.77
	FillingsUpdate:  mu: -0.171251800  nElectrons: 596.004192
	Linear fluid (dielectric constant: 78.4, screening length: 5.74355 Bohr) occupying 0.706219 of unit cell:	Completed after 8 iterations at t[s]:  11980.80
SCF: Cycle: 122   G: -2578.413048979919040   dG: -4.551e-05   |Residual|: 1.226e-04   |deigs|: 7.044e-05  t[s]:  11982.46
	Linear fluid (dielectric constant: 78.4, screening length: 5.74355 Bohr) occupying 0.706215 of unit cell:	Completed after 9 iterations at t[s]:  11984.15
	FillingsUpdate:  mu: -0.171251800  nElectrons: 595.998841
	Linear fluid (dielectric constant: 78.4, screening length: 5.74355 Bohr) occupying 0.706216 of unit cell:	Completed after 2 iterations at t[s]:  12070.46
SCF: Cycle: 123   G: -2578.413051214244661   dG: -2.234e-06   |Residual|: 7.086e-05   |deigs|: 1.726e-05  t[s]:  12072.08
	Linear fluid (dielectric constant: 78.4, screening length: 5.74355 Bohr) occupying 0.706215 of unit cell:	Completed after 0 iterations at t[s]:  12072.81
	FillingsUpdate:  mu: -0.171251800  nElectrons: 596.007263
	Linear fluid (dielectric constant: 78.4, screening length: 5.74355 Bohr) occupying 0.706221 of unit cell:	Completed after 9 iterations at t[s]:  12159.01
SCF: Cycle: 124   G: -2578.413047333672694   dG: +3.881e-06   |Residual|: 2.171e-04   |deigs|: 2.703e-05  t[s]:  12160.92
	Linear fluid (dielectric constant: 78.4, screening length: 5.74355 Bohr) occupying 0.706215 of unit cell:	Completed after 8 iterations at t[s]:  12162.53
	FillingsUpdate:  mu: -0.171251800  nElectrons: 595.995524
	Linear fluid (dielectric constant: 78.4, screening length: 5.74355 Bohr) occupying 0.706213 of unit cell:	Completed after 5 iterations at t[s]:  12248.66
SCF: Cycle: 125   G: -2578.413050702687087   dG: -3.369e-06   |Residual|: 1.524e-04   |deigs|: 3.580e-05  t[s]:  12250.55
	Linear fluid (dielectric constant: 78.4, screening length: 5.74355 Bohr) occupying 0.706215 of unit cell:	Completed after 3 iterations at t[s]:  12251.63
	FillingsUpdate:  mu: -0.171251800  nElectrons: 596.020402
	Linear fluid (dielectric constant: 78.4, screening length: 5.74355 Bohr) occupying 0.706232 of unit cell:	Completed after 11 iterations at t[s]:  12338.08
SCF: Cycle: 126   G: -2578.413030283895750   dG: +2.042e-05   |Residual|: 2.985e-04   |deigs|: 7.070e-05  t[s]:  12339.87
	Linear fluid (dielectric constant: 78.4, screening length: 5.74355 Bohr) occupying 0.706215 of unit cell:	Completed after 12 iterations at t[s]:  12341.96
	FillingsUpdate:  mu: -0.171251800  nElectrons: 596.005447
	Linear fluid (dielectric constant: 78.4, screening length: 5.74355 Bohr) occupying 0.706220 of unit cell:	Completed after 9 iterations at t[s]:  12428.43
SCF: Cycle: 127   G: -2578.413048149748192   dG: -1.787e-05   |Residual|: 1.364e-04   |deigs|: 4.490e-05  t[s]:  12430.28
[...]
	Linear fluid (dielectric constant: 78.4, screening length: 5.74355 Bohr) occupying 0.706216 of unit cell:	Completed after 3 iterations at t[s]:  21079.59
	FillingsUpdate:  mu: -0.171251800  nElectrons: 595.985707
	Linear fluid (dielectric constant: 78.4, screening length: 5.74355 Bohr) occupying 0.706208 of unit cell:	Completed after 11 iterations at t[s]:  21162.83
SCF: Cycle: 224   G: -2578.413035486899389   dG: +1.495e-05   |Residual|: 2.594e-04   |deigs|: 4.052e-05  t[s]:  21164.45
	Linear fluid (dielectric constant: 78.4, screening length: 5.74355 Bohr) occupying 0.706216 of unit cell:	Completed after 10 iterations at t[s]:  21166.14
	FillingsUpdate:  mu: -0.171251800  nElectrons: 596.011265
	Linear fluid (dielectric constant: 78.4, screening length: 5.74355 Bohr) occupying 0.706225 of unit cell:	Completed after 10 iterations at t[s]:  21249.57
SCF: Cycle: 225   G: -2578.413046510685035   dG: -1.102e-05   |Residual|: 1.962e-04   |deigs|: 7.411e-05  t[s]:  21251.19
	Linear fluid (dielectric constant: 78.4, screening length: 5.74355 Bohr) occupying 0.706216 of unit cell:	Completed after 9 iterations at t[s]:  21252.79
	FillingsUpdate:  mu: -0.171251800  nElectrons: 596.000731
	Linear fluid (dielectric constant: 78.4, screening length: 5.74355 Bohr) occupying 0.706216 of unit cell:	Completed after 4 iterations at t[s]:  21335.32
SCF: Cycle: 226   G: -2578.413050044329339   dG: -3.534e-06   |Residual|: 1.420e-04   |deigs|: 3.507e-05  t[s]:  21336.87
	Linear fluid (dielectric constant: 78.4, screening length: 5.74355 Bohr) occupying 0.706216 of unit cell:	Completed after 2 iterations at t[s]:  21337.78
	FillingsUpdate:  mu: -0.171251800  nElectrons: 595.963409
	Linear fluid (dielectric constant: 78.4, screening length: 5.74355 Bohr) occupying 0.706196 of unit cell:	Completed after 13 iterations at t[s]:  21422.22
SCF: Cycle: 227   G: -2578.412967447401570   dG: +8.260e-05   |Residual|: 5.658e-04   |deigs|: 1.064e-04  t[s]:  21423.81
	Linear fluid (dielectric constant: 78.4, screening length: 5.74355 Bohr) occupying 0.706216 of unit cell:	Completed after 14 iterations at t[s]:  21425.96
	FillingsUpdate:  mu: -0.171251800  nElectrons: 596.009050
	Linear fluid (dielectric constant: 78.4, screening length: 5.74355 Bohr) occupying 0.706223 of unit cell:	Completed after 9 iterations at t[s]:  21509.19
SCF: Cycle: 228   G: -2578.413048666890063   dG: -8.122e-05   |Residual|: 1.461e-04   |deigs|: 1.293e-04  t[s]:  21510.79
	Linear fluid (dielectric constant: 78.4, screening length: 5.74355 Bohr) occupying 0.706216 of unit cell:	Completed after 9 iterations at t[s]:  21512.40
	FillingsUpdate:  mu: -0.171251800  nElectrons: 596.000248
	Linear fluid (dielectric constant: 78.4, screening length: 5.74355 Bohr) occupying 0.706216 of unit cell:	Completed after 3 iterations at t[s]:  21595.30
SCF: Cycle: 229   G: -2578.413050581486004   dG: -1.915e-06   |Residual|: 1.138e-04   |deigs|: 2.830e-05  t[s]:  21596.89
	Linear fluid (dielectric constant: 78.4, screening length: 5.74355 Bohr) occupying 0.706216 of unit cell:	Completed after 3 iterations at t[s]:  21597.92
	FillingsUpdate:  mu: -0.171251800  nElectrons: 595.979612
	Linear fluid (dielectric constant: 78.4, screening length: 5.74355 Bohr) occupying 0.706204 of unit cell:	Completed after 11 iterations at t[s]:  21681.41
SCF: Cycle: 230   G: -2578.413021954771466   dG: +2.863e-05   |Residual|: 3.425e-04   |deigs|: 6.048e-05  t[s]:  21682.97
	Linear fluid (dielectric constant: 78.4, screening length: 5.74355 Bohr) occupying 0.706216 of unit cell:	Completed after 12 iterations at t[s]:  21684.90
	FillingsUpdate:  mu: -0.171251800  nElectrons: 596.009257
	Linear fluid (dielectric constant: 78.4, screening length: 5.74355 Bohr) occupying 0.706224 of unit cell:	Completed after 9 iterations at t[s]:  21768.17
SCF: Cycle: 231   G: -2578.413048158106903   dG: -2.620e-05   |Residual|: 1.586e-04   |deigs|: 8.477e-05  t[s]:  21769.77
	Linear fluid (dielectric constant: 78.4, screening length: 5.74355 Bohr) occupying 0.706216 of unit cell:	Completed after 9 iterations at t[s]:  21771.43
	FillingsUpdate:  mu: -0.171251800  nElectrons: 595.998933
	Linear fluid (dielectric constant: 78.4, screening length: 5.74355 Bohr) occupying 0.706215 of unit cell:	Completed after 3 iterations at t[s]:  21853.99
SCF: Cycle: 232   G: -2578.413050745245528   dG: -2.587e-06   |Residual|: 1.163e-04   |deigs|: 3.257e-05  t[s]:  21855.63
	Linear fluid (dielectric constant: 78.4, screening length: 5.74355 Bohr) occupying 0.706216 of unit cell:	Completed after 3 iterations at t[s]:  21856.62
	FillingsUpdate:  mu: -0.171251800  nElectrons: 595.987751
	Linear fluid (dielectric constant: 78.4, screening length: 5.74355 Bohr) occupying 0.706209 of unit cell:	Completed after 11 iterations at t[s]:  21939.72
SCF: Cycle: 233   G: -2578.413037071881718   dG: +1.367e-05   |Residual|: 2.662e-04   |deigs|: 3.710e-05  t[s]:  21941.25
	Linear fluid (dielectric constant: 78.4, screening length: 5.74355 Bohr) occupying 0.706216 of unit cell:	Completed after 9 iterations at t[s]:  21942.83
	FillingsUpdate:  mu: -0.171251800  nElectrons: 596.011456
	Linear fluid (dielectric constant: 78.4, screening length: 5.74355 Bohr) occupying 0.706226 of unit cell:	Completed after 10 iterations at t[s]:  22026.60
SCF: Cycle: 234   G: -2578.413045791421155   dG: -8.720e-06   |Residual|: 2.100e-04   |deigs|: 6.972e-05  t[s]:  22028.12
	Linear fluid (dielectric constant: 78.4, screening length: 5.74355 Bohr) occupying 0.706216 of unit cell:	Completed after 9 iterations at t[s]:  22029.71
	FillingsUpdate:  mu: -0.171251800  nElectrons: 596.000009
	Linear fluid (dielectric constant: 78.4, screening length: 5.74355 Bohr) occupying 0.706216 of unit cell:	Completed after 4 iterations at t[s]:  22113.08
SCF: Cycle: 235   G: -2578.413050393203775   dG: -4.602e-06   |Residual|: 1.323e-04   |deigs|: 3.753e-05  t[s]:  22114.68
	Linear fluid (dielectric constant: 78.4, screening length: 5.74355 Bohr) occupying 0.706216 of unit cell:	Completed after 4 iterations at t[s]:  22115.81
	FillingsUpdate:  mu: -0.171251800  nElectrons: 595.980449
	Linear fluid (dielectric constant: 78.4, screening length: 5.74355 Bohr) occupying 0.706205 of unit cell:	Completed after 11 iterations at t[s]:  22199.95
SCF: Cycle: 236   G: -2578.413025433506846   dG: +2.496e-05   |Residual|: 3.171e-04   |deigs|: 5.742e-05  t[s]:  22201.58
	Linear fluid (dielectric constant: 78.4, screening length: 5.74355 Bohr) occupying 0.706216 of unit cell:	Completed after 12 iterations at t[s]:  22203.53
	FillingsUpdate:  mu: -0.171251800  nElectrons: 596.010264
	Linear fluid (dielectric constant: 78.4, screening length: 5.74355 Bohr) occupying 0.706224 of unit cell:	Completed after 9 iterations at t[s]:  22287.13
SCF: Cycle: 237   G: -2578.413047736759836   dG: -2.230e-05   |Residual|: 1.617e-04   |deigs|: 8.564e-05  t[s]:  22288.73
	Linear fluid (dielectric constant: 78.4, screening length: 5.74355 Bohr) occupying 0.706216 of unit cell:	Completed after 9 iterations at t[s]:  22290.33
	FillingsUpdate:  mu: -0.171251800  nElectrons: 596.001237
	Linear fluid (dielectric constant: 78.4, screening length: 5.74355 Bohr) occupying 0.706217 of unit cell:	Completed after 5 iterations at t[s]:  22373.00
SCF: Cycle: 238   G: -2578.413049800846693   dG: -2.064e-06   |Residual|: 1.442e-04   |deigs|: 3.085e-05  t[s]:  22374.62
	Linear fluid (dielectric constant: 78.4, screening length: 5.74355 Bohr) occupying 0.706216 of unit cell:	Completed after 3 iterations at t[s]:  22375.60
	FillingsUpdate:  mu: -0.171251800  nElectrons: 595.962126
	Linear fluid (dielectric constant: 78.4, screening length: 5.74355 Bohr) occupying 0.706195 of unit cell:	Completed after 14 iterations at t[s]:  22468.08
SCF: Cycle: 239   G: -2578.412966515514199   dG: +8.329e-05   |Residual|: 5.654e-04   |deigs|: 1.112e-04  t[s]:  22469.67
	Linear fluid (dielectric constant: 78.4, screening length: 5.74355 Bohr) occupying 0.706216 of unit cell:	Completed after 14 iterations at t[s]:  22471.79
	FillingsUpdate:  mu: -0.171251800  nElectrons: 596.008452
	Linear fluid (dielectric constant: 78.4, screening length: 5.74355 Bohr) occupying 0.706223 of unit cell:	Completed after 8 iterations at t[s]:  22554.79
SCF: Cycle: 240   G: -2578.413049059896821   dG: -8.254e-05   |Residual|: 1.333e-04   |deigs|: 1.312e-04  t[s]:  22556.44
	Linear fluid (dielectric constant: 78.4, screening length: 5.74355 Bohr) occupying 0.706216 of unit cell:	Completed after 8 iterations at t[s]:  22557.97
	FillingsUpdate:  mu: -0.171251800  nElectrons: 595.995380
	Linear fluid (dielectric constant: 78.4, screening length: 5.74355 Bohr) occupying 0.706213 of unit cell:	Completed after 5 iterations at t[s]:  22640.86
SCF: Cycle: 241   G: -2578.413050724897403   dG: -1.665e-06   |Residual|: 1.037e-04   |deigs|: 3.798e-05  t[s]:  22642.38
	Linear fluid (dielectric constant: 78.4, screening length: 5.74355 Bohr) occupying 0.706216 of unit cell:	Completed after 3 iterations at t[s]:  22643.39
	FillingsUpdate:  mu: -0.171251800  nElectrons: 596.029016
	Linear fluid (dielectric constant: 78.4, screening length: 5.74355 Bohr) occupying 0.706238 of unit cell:	Completed after 13 iterations at t[s]:  22728.32
SCF: Cycle: 242   G: -2578.413005271787824   dG: +4.545e-05   |Residual|: 4.252e-04   |deigs|: 9.469e-05  t[s]:  22729.91
	Linear fluid (dielectric constant: 78.4, screening length: 5.74355 Bohr) occupying 0.706216 of unit cell:	Completed after 13 iterations at t[s]:  22731.97
	FillingsUpdate:  mu: -0.171251800  nElectrons: 596.004410
	Linear fluid (dielectric constant: 78.4, screening length: 5.74355 Bohr) occupying 0.706219 of unit cell:	Completed after 7 iterations at t[s]:  22814.65
SCF: Cycle: 243   G: -2578.413049769299960   dG: -4.450e-05   |Residual|: 9.383e-05   |deigs|: 7.120e-05  t[s]:  22816.17
	Linear fluid (dielectric constant: 78.4, screening length: 5.74355 Bohr) occupying 0.706216 of unit cell:	Completed after 4 iterations at t[s]:  22817.27
	FillingsUpdate:  mu: -0.171251800  nElectrons: 595.961425
	Linear fluid (dielectric constant: 78.4, screening length: 5.74355 Bohr) occupying 0.706193 of unit cell:	Completed after 14 iterations at t[s]:  22901.49
SCF: Cycle: 244   G: -2578.412971663361077   dG: +7.811e-05   |Residual|: 5.595e-04   |deigs|: 1.201e-04  t[s]:  22903.11
	Linear fluid (dielectric constant: 78.4, screening length: 5.74355 Bohr) occupying 0.706216 of unit cell:	Completed after 13 iterations at t[s]:  22905.13
	FillingsUpdate:  mu: -0.171251800  nElectrons: 596.008033
	Linear fluid (dielectric constant: 78.4, screening length: 5.74355 Bohr) occupying 0.706223 of unit cell:	Completed after 8 iterations at t[s]:  22988.21
SCF: Cycle: 245   G: -2578.413049501004934   dG: -7.784e-05   |Residual|: 1.513e-04   |deigs|: 1.331e-04  t[s]:  22989.82
	Linear fluid (dielectric constant: 78.4, screening length: 5.74355 Bohr) occupying 0.706216 of unit cell:	Completed after 9 iterations at t[s]:  22991.46
	FillingsUpdate:  mu: -0.171251800  nElectrons: 596.000555
	Linear fluid (dielectric constant: 78.4, screening length: 5.74355 Bohr) occupying 0.706217 of unit cell:	Completed after 0 iterations at t[s]:  23073.83
SCF: Cycle: 246   G: -2578.413051302201438   dG: -1.801e-06   |Residual|: 4.939e-05   |deigs|: 2.355e-05  t[s]:  23075.46
	Linear fluid (dielectric constant: 78.4, screening length: 5.74355 Bohr) occupying 0.706216 of unit cell:	Completed after 0 iterations at t[s]:  23076.04
	FillingsUpdate:  mu: -0.171251800  nElectrons: 595.999899
	Linear fluid (dielectric constant: 78.4, screening length: 5.74355 Bohr) occupying 0.706217 of unit cell:	Completed after 0 iterations at t[s]:  23158.19
SCF: Cycle: 247   G: -2578.413051306781654   dG: -4.580e-09   |Residual|: 2.353e-05   |deigs|: 3.140e-06  t[s]:  23159.75
	Linear fluid (dielectric constant: 78.4, screening length: 5.74355 Bohr) occupying 0.706216 of unit cell:	Completed after 0 iterations at t[s]:  23160.36
	FillingsUpdate:  mu: -0.171251800  nElectrons: 595.999900
	Linear fluid (dielectric constant: 78.4, screening length: 5.74355 Bohr) occupying 0.706217 of unit cell:	Completed after 0 iterations at t[s]:  23264.92
SCF: Cycle: 248   G: -2578.413051306880789   dG: -9.913e-11   |Residual|: 2.311e-05   |deigs|: 3.036e-08  t[s]:  23266.49
SCF: Converged (|Delta E|<1.000000e-08 for 2 iters).


# Ionic positions in lattice coordinates:
ion Bi   0.375000000000001   0.659277061583945   0.657210505006790 0
ion Bi   0.875000000000001   0.659277061583945   0.657210505006790 0
ion Bi   0.125000000000001   0.340717944400414   0.342789605980253 0
ion Bi   0.625000000000001   0.340717944400414   0.342789605980253 0
ion Bi   0.375000000000001   0.301072483986115   0.411847553708424 0
ion Bi   0.875000000000001   0.301072483986115   0.411847553708424 0
ion Bi   0.125000000000001   0.698931179730543   0.588152858864090 0
ion Bi   0.625000000000001   0.698931179730543   0.588152858864090 0
ion Bi   0.375000000000001   0.077976990267745   0.382961306575626 0
ion Bi   0.875000000000001   0.077976990267745   0.382961306575626 0
ion Bi   0.125000000000001   0.922024645065113   0.617040425250383 0
ion Bi   0.625000000000001   0.922024645065113   0.617040425250383 0
ion Bi   0.375000000000001   0.974419433079402   0.550905783580324 0
ion Bi   0.875000000000001   0.974419433079402   0.550905783580324 0
ion Bi   0.125000000000001   0.025579291374776   0.449095635323685 0
ion Bi   0.625000000000001   0.025579291374776   0.449095635323685 0
ion Bi   0.375000000000001   0.199961567387887   0.578021021590321 0
ion Bi   0.875000000000001   0.199961567387887   0.578021021590321 0
ion Bi   0.125000000000001   0.800037473233163   0.421977876572631 0
ion Bi   0.625000000000001   0.800037473233163   0.421977876572631 0
ion Bi   0.375000000000001   0.754275232692878   0.489961033108346 0
ion Bi   0.875000000000001   0.754275232692878   0.489961033108346 0
ion Bi   0.125000000000001   0.245729472025270   0.510033702369402 0
ion Bi   0.625000000000001   0.245729472025270   0.510033702369402 0
ion Bi   0.375000000000001   0.525786075454492   0.466774305817052 0
ion Bi   0.875000000000001   0.525786075454492   0.466774305817052 0
ion Bi   0.125000000000001   0.474209224084776   0.533224110290303 0
ion Bi   0.625000000000001   0.474209224084776   0.533224110290303 0
ion Bi   0.125000000000001   0.563712398985152   0.367035125103621 0
ion Bi   0.625000000000001   0.563712398985152   0.367035125103621 0
ion Bi   0.375000000000001   0.436281012120547   0.632965908580814 0
ion Bi   0.875000000000001   0.436281012120547   0.632965908580814 0
ion Bi   0.125000000000001   0.385979112747197   0.701118789460922 0
ion Bi   0.625000000000001   0.385979112747197   0.701118789460922 0
ion Bi   0.375000000000001   0.614016934146848   0.298882386607767 0
ion Bi   0.875000000000001   0.614016934146848   0.298882386607767 0
ion I   0.125000000000001   0.593909268057357   0.745449596238339 0
ion I   0.625000000000001   0.593909268057357   0.745449596238339 0
ion I   0.375000000000001   0.406102267537234   0.254548721402561 0
ion I   0.875000000000001   0.406102267537234   0.254548721402561 0
ion I   0.125000000000001   0.158071797795715   0.673016264063717 0
ion I   0.625000000000001   0.158071797795715   0.673016264063717 0
ion I   0.375000000000001   0.841929134243401   0.326987484504620 0
ion I   0.875000000000001   0.841929134243401   0.326987484504620 0


# Forces in Lattice coordinates:
force Bi  -0.000000000000000   0.001131540555924  -0.025984201080391 0
force Bi   0.000000000000000   0.001131540555924  -0.025984201080391 0
force Bi   0.000000000000000  -0.001128302880132   0.025618249756731 0
force Bi   0.000000000000000  -0.001128302880103   0.025618249757638 0
force Bi   0.000000000000000  -0.013412410657822   0.001259721993138 0
force Bi   0.000000000000000  -0.013412410657822   0.001259721993138 0
force Bi   0.000000000000000   0.013326276579407  -0.001420398292752 0
force Bi   0.000000000000000   0.013326276579408  -0.001420398293206 0
force Bi   0.000000000000000  -0.009357537659043  -0.033270132971960 0
force Bi   0.000000000000000  -0.009357537659043  -0.033270132971960 0
force Bi   0.000000000000000   0.009280200491008   0.033042135737336 0
force Bi   0.000000000000000   0.009280200491008   0.033042135738246 0
force Bi   0.000000000000000   0.009602138149862  -0.012360257169055 0
force Bi  -0.000000000000000   0.009602138149862  -0.012360257169055 0
force Bi   0.000000000000000  -0.009720352525269   0.012177878856791 0
force Bi   0.000000000000000  -0.009720352525267   0.012177878856565 0
force Bi   0.000000000000000  -0.003262102407161   0.010846633857046 0
force Bi   0.000000000000000  -0.003262102407161   0.010846633857046 0
force Bi   0.000000000000000   0.003358686004942  -0.011343412666381 0
force Bi   0.000000000000000   0.003358686004942  -0.011343412666381 0
force Bi   0.000000000000000  -0.019778146670389  -0.011342065595327 0
force Bi   0.000000000000000  -0.019778146670389  -0.011342065595355 0
force Bi   0.000000000000000   0.019556172853614   0.012014580532997 0
force Bi   0.000000000000000   0.019556172853586   0.012014580533026 0
force Bi   0.000000000000000   0.021650037372349  -0.030231945778313 0
force Bi   0.000000000000000   0.021650037372351  -0.030231945778313 0
force Bi   0.000000000000000  -0.021328623559908   0.030418064519450 0
force Bi   0.000000000000000  -0.021328623559907   0.030418064519564 0
force Bi   0.000000000000000   0.018107372124469   0.004114351259668 0
force Bi   0.000000000000000   0.018107372124469   0.004114351259214 0
force Bi   0.000000000000000  -0.018031653743900  -0.004158200813851 0
force Bi   0.000000000000000  -0.018031653743886  -0.004158200813851 0
force Bi   0.000000000000000  -0.037239100724797   0.007682320076977 0
force Bi   0.000000000000000  -0.037239100724797   0.007682320076977 0
force Bi  -0.000000000000000   0.037388798110926  -0.007623131943220 0
force Bi   0.000000000000000   0.037388798110926  -0.007623131943220 0
force I   0.000000000000000   0.025501542063766   0.052935297605355 0
force I   0.000000000000000   0.025501542063781   0.052935297605355 0
force I  -0.000000000000000  -0.025659523342583  -0.053084648935925 0
force I   0.000000000000000  -0.025659523342583  -0.053084648935925 0
force I   0.000000000000000   0.004765116128079  -0.023795133559228 0
force I   0.000000000000000   0.004765116128093  -0.023795133559228 0
force I  -0.000000000000000  -0.004765457082371   0.023784424112411 0
force I   0.000000000000000  -0.004765457082385   0.023784424112411 0

# Energy components:
   A_diel =       -0.0058885333343838
   Eewald =    28956.3125818214502942
       EH =    31304.1287091740014148
     Eloc =   -63628.8733919264050201
      Enl =      847.7314731208964531
      Exc =    -1356.4168007963269247
 Exc_core =      917.1579808600694150
       KE =      279.5256843873202683
  MuShift =        0.0000012415272452
-------------------------------------
     Etot =    -2680.4396506508055609
       TS =        0.0394563232117577
-------------------------------------
        F =    -2680.4791069740172134
      muN =     -102.0660556671364816
-------------------------------------
        G =    -2578.4130513068807886

IonicMinimize: Iter:   0  G: -2578.413051306880789  |grad|_K:  0.000e+00  t[s]:  23281.31
IonicMinimize: Converged (|grad|_K<1.000000e-04).

#--- Lowdin population analysis ---
# oxidation-state Bi +0.225 +0.225 +0.225 +0.225 -0.034 -0.034 -0.034 -0.034 +0.144 +0.144 +0.144 +0.144 +0.042 +0.042 +0.042 +0.042 +0.182 +0.182 +0.182 +0.182 +0.004 +0.004 +0.004 +0.004 +0.065 +0.065 +0.065 +0.065 +0.009 +0.009 +0.009 +0.009 +0.349 +0.349 +0.349 +0.349
# oxidation-state I -0.319 -0.319 -0.319 -0.319 -0.336 -0.336 -0.336 -0.336


Dumping 'NbTe2.fillings' ... done
Dumping 'NbTe2.wfns' ... done
Dumping 'NbTe2.fluidState' ... done
Dumping 'NbTe2.eigenvals' ... done
End date and time: Thu Jul  9 04:01:18 2020  (Duration: 0-6:28:14.93)
Done!
