
*************** JDFTx 1.5.0  ***************

Start date and time: Thu Jul 30 18:10:13 2020
Executable jdftx_gpu with command-line: -i Charged.in -o Charged.out
Running on hosts (process indices):  amax (0-5)
Divided in process groups (process indices):  0 (0)  1 (1)  2 (2)  3 (3)  4 (4)  5 (5)
gpuInit: Found compatible cuda device 0 'Tesla K80'
gpuInit: Found compatible cuda device 1 'Tesla K80'
gpuInit: Found compatible cuda device 2 'Tesla K80'
gpuInit: Found compatible cuda device 3 'Tesla K80'
gpuInit: Found compatible cuda device 4 'Tesla K80'
gpuInit: Found compatible cuda device 5 'Tesla K80'
gpuInit: Selected device 0
Resource initialization completed at t[s]:      6.84
Run totals: 6 processes, 24 threads, 6 GPUs


Input parsed successfully to the following command list (including defaults):

basis kpoint-dependent
cache-projectors no
coords-type Lattice
core-overlap-check none
coulomb-interaction Slab 001
coulomb-truncation-embed 0 0 0.5
davidson-band-ratio 1.1
dump End State
dump-name NbTe2.$VAR
elec-cutoff 20 100
elec-eigen-algo Davidson
elec-ex-corr gga-PBE
elec-smearing Gauss 0.0073499
electronic-minimize  \
	dirUpdateScheme      FletcherReeves \
	linminMethod         DirUpdateRecommended \
	nIterations          500 \
	history              15 \
	knormThreshold       0 \
	energyDiffThreshold  1e-08 \
	nEnergyDiff          2 \
	alphaTstart          1 \
	alphaTmin            1e-10 \
	updateTestStepSize   yes \
	alphaTreduceFactor   0.1 \
	alphaTincreaseFactor 3 \
	nAlphaAdjustMax      3 \
	wolfeEnergy          0.0001 \
	wolfeGradient        0.9 \
	fdTest               no
exchange-regularization WignerSeitzTruncated
fluid LinearPCM 298.000000 1.013250
fluid-anion F- 1 MeanFieldLJ \
	epsBulk 1 \
	pMol 0 \
	epsInf 1 \
	Pvap 0 \
	sigmaBulk 0 \
	Rvdw 2.24877 \
	Res 0 \
	tauNuc 343133
fluid-cation Na+ 1 MeanFieldLJ \
	epsBulk 1 \
	pMol 0 \
	epsInf 1 \
	Pvap 0 \
	sigmaBulk 0 \
	Rvdw 2.19208 \
	Res 0 \
	tauNuc 343133
fluid-ex-corr lda-TF lda-PZ
fluid-gummel-loop 10 1.000000e-05
fluid-minimize  \
	dirUpdateScheme      PolakRibiere \
	linminMethod         DirUpdateRecommended \
	nIterations          400 \
	history              15 \
	knormThreshold       1e-11 \
	energyDiffThreshold  0 \
	nEnergyDiff          2 \
	alphaTstart          1 \
	alphaTmin            1e-10 \
	updateTestStepSize   yes \
	alphaTreduceFactor   0.1 \
	alphaTincreaseFactor 3 \
	nAlphaAdjustMax      6 \
	wolfeEnergy          0.0001 \
	wolfeGradient        0.9 \
	fdTest               no
fluid-solvent H2O 55.338 ScalarEOS \
	epsBulk 78.4 \
	pMol 0.92466 \
	epsInf 1.77 \
	Pvap 1.06736e-10 \
	sigmaBulk 4.62e-05 \
	Rvdw 2.61727 \
	Res 1.42 \
	tauNuc 343133 \
	poleEl 15 7 1
forces-output-coords Positions
initial-state NbTe2.$VAR
ion Li   0.333999930863447   0.334499685284467   0.497707429953407 0
ion Li   0.831590507058168   0.334283409219119   0.498484362126442 0
ion Li   0.334657564649104   0.831043976612993   0.498168497957380 0
ion Li   0.833366377293396   0.833287519990771   0.498712247494613 0
ion Ni   0.167135976856994   0.165767513206287   0.498654374917615 0
ion Ni   0.666534886220947   0.167190422763291   0.498662391815860 0
ion Ni   0.166943772957093   0.666381528862130   0.498731424727690 0
ion Ni   0.666517065896414   0.666723579034103   0.498518424186501 0
ion P  -0.002342977355621   0.502378758286854   0.438589846621640 0
ion P  -0.000189624245169   0.502184915448700   0.558273644453774 0
ion P   0.500083632504714   0.499917077183165   0.498207448132237 0
ion P   0.501935166328370  -0.002171216278450   0.557911674867947 0
ion P   0.000682700565857  -0.002762834879629   0.439296578232414 0
ion P  -0.001909543073239  -0.000543082785519   0.558841968237891 0
ion P   0.502467999266034  -0.000229191041177   0.438356183112401 0
ion S   0.016982310227966   0.324600913339834   0.585667651463139 0
ion S   0.323280345799697   0.159081954421856   0.584422850660488 0
ion S   0.018464719410322   0.158012608141325   0.412290887680008 0
ion S   0.157534762537651   0.324877574629722   0.410859482608816 0
ion S   0.323998889416408   0.017483417289293   0.410941790247117 0
ion S   0.159467629234941   0.016591802866656   0.585877383133040 0
ion S   0.518614152046680   0.338509916695553   0.568923504477935 0
ion S   0.818643677973330   0.165245102096427   0.583168172121696 0
ion S   0.516576555708803   0.165238413121412   0.413902274909477 0
ion S   0.643301557561234   0.338193333467462   0.427725362879323 0
ion S   0.823586520010163   0.014958794811554   0.411136568962391 0
ion S   0.661406101536330   0.015458208532529   0.586143211461370 0
ion S   0.014399533382588   0.823314301659302   0.586366141600067 0
ion S   0.338819573855083   0.642655902283965   0.569132853429300 0
ion S   0.014379706917836   0.662159232929015   0.411176069496638 0
ion S   0.165796881708685   0.818176037126068   0.414349368142423 0
ion S   0.337782797573434   0.518816368722332   0.427688808588499 0
ion S   0.165956978117009   0.516298546501034   0.582914412918060 0
ion S   0.515663270976261   0.818786474794797   0.582819779456368 0
ion S   0.823304223817907   0.661993615341249   0.585953010614387 0
ion S   0.518676085964042   0.642962763604142   0.427553796478842 0
ion S   0.662131720156915   0.823588010345055   0.410832204901996 0
ion S   0.817223063450072   0.516802660432892   0.414047592985254 0
ion S   0.643225079830126   0.518823033939475   0.568990340945557 0
ion-species GBRV/$ID_pbe.uspp
ion-width Ecut
ionic-minimize  \
	dirUpdateScheme      L-BFGS \
	linminMethod         DirUpdateRecommended \
	nIterations          0 \
	history              15 \
	knormThreshold       0.0001 \
	energyDiffThreshold  1e-06 \
	nEnergyDiff          2 \
	alphaTstart          1 \
	alphaTmin            1e-10 \
	updateTestStepSize   yes \
	alphaTreduceFactor   0.1 \
	alphaTincreaseFactor 3 \
	nAlphaAdjustMax      3 \
	wolfeEnergy          0.0001 \
	wolfeGradient        0.9 \
	fdTest               no
kpoint   0.000000000000   0.000000000000   0.000000000000  1.00000000000000
kpoint-folding 3 3 1 
latt-move-scale 1 1 1
latt-scale 1 1 1 
lattice Triclinic 21.9941 22.0864 34.3361 90 90 60.1379
lattice-minimize  \
	dirUpdateScheme      L-BFGS \
	linminMethod         DirUpdateRecommended \
	nIterations          0 \
	history              15 \
	knormThreshold       0 \
	energyDiffThreshold  1e-06 \
	nEnergyDiff          2 \
	alphaTstart          1 \
	alphaTmin            1e-10 \
	updateTestStepSize   yes \
	alphaTreduceFactor   0.1 \
	alphaTincreaseFactor 3 \
	nAlphaAdjustMax      3 \
	wolfeEnergy          0.0001 \
	wolfeGradient        0.9 \
	fdTest               no
lcao-params -1 1e-06 0.0073499
pcm-variant CANDLE
spintype no-spin
subspace-rotation-factor 1 yes
symmetries automatic
symmetry-threshold 0.0001
target-mu -0.24475 no




---------- Setting up symmetries ----------

Found 8 point-group symmetries of the bravais lattice
Found 1 space-group symmetries with basis
Applied RMS atom displacement 0 bohrs to make symmetries exact.

---------- Initializing the Grid ----------
R = 
[    21.9941    10.9971          0  ]
[          0    19.1539          0  ]
[          0          0    34.3361  ]
unit cell volume = 14464.9
G =
[   0.285675  -0.164019          0  ]
[          0   0.328037          0  ]
[          0          0    0.18299  ]
Minimum fftbox size, Smin = [  100  100  156  ]
Chosen fftbox size, S = [  100  100  160  ]

---------- Initializing tighter grid for wavefunction operations ----------
R = 
[    21.9941    10.9971          0  ]
[          0    19.1539          0  ]
[          0          0    34.3361  ]
unit cell volume = 14464.9
G =
[   0.285675  -0.164019          0  ]
[          0   0.328037          0  ]
[          0          0    0.18299  ]
Minimum fftbox size, Smin = [  92  92  140  ]
Chosen fftbox size, S = [  96  96  140  ]

---------- Exchange Correlation functional ----------
Initalized PBE GGA exchange.
Initalized PBE GGA correlation.

---------- Setting up pseudopotentials ----------
Width of ionic core gaussian charges (only for fluid interactions / plotting) set to 0.397384

Reading pseudopotential file '/home/guoxy/vasp/jdftx-1.5.0/build/pseudopotentials/GBRV/li_pbe.uspp':
  Title: Li.  Created by USPP 7.3.6 on 8-4-15
  Reference state energy: -7.100502.  3 valence electrons in orbitals:
    |100>  occupation: 2  eigenvalue: -2.033252
    |200>  occupation: 0.55  eigenvalue: -0.187138
    |210>  occupation: 0  eigenvalue: -0.114272
  lMax: 1  lLocal: 2  QijEcut: 6
  5 projectors sampled on a log grid with 541 points:
    l: 0  eig: -2.033252  rCut: 1.3
    l: 0  eig: -0.187138  rCut: 1.3
    l: 0  eig: 1.000000  rCut: 1.3
    l: 1  eig: -0.114273  rCut: 2.001
    l: 1  eig: 1.000000  rCut: 2.001
  Transforming local potential to a uniform radial grid of dG=0.02 with 1605 points.
  Transforming nonlocal projectors to a uniform radial grid of dG=0.02 with 432 points.
  Transforming density augmentations to a uniform radial grid of dG=0.02 with 1605 points.
  Transforming atomic orbitals to a uniform radial grid of dG=0.02 with 432 points.
  Core radius for overlap checks: 2.00 bohrs.

Reading pseudopotential file '/home/guoxy/vasp/jdftx-1.5.0/build/pseudopotentials/GBRV/ni_pbe.uspp':
  Title: Ni.  Created by USPP 7.3.6 on 1-4-15
  Reference state energy: -170.398381.  18 valence electrons in orbitals:
    |300>  occupation: 2  eigenvalue: -4.804705
    |310>  occupation: 6  eigenvalue: -3.347751
    |320>  occupation: 8  eigenvalue: -1.042415
    |400>  occupation: 0  eigenvalue: -0.795539
    |410>  occupation: 0  eigenvalue: -0.551375
  lMax: 2  lLocal: 3  QijEcut: 6.5
  6 projectors sampled on a log grid with 611 points:
    l: 0  eig: -4.804708  rCut: 1.44
    l: 0  eig: -0.795541  rCut: 1.44
    l: 1  eig: -3.347753  rCut: 1.55
    l: 1  eig: 0.500000  rCut: 1.55
    l: 2  eig: -1.042418  rCut: 1.5
    l: 2  eig: -0.450000  rCut: 1.5
  Partial core density with radius 0.65
  Transforming core density to a uniform radial grid of dG=0.02 with 1605 points.
  Transforming local potential to a uniform radial grid of dG=0.02 with 1605 points.
  Transforming nonlocal projectors to a uniform radial grid of dG=0.02 with 432 points.
  Transforming density augmentations to a uniform radial grid of dG=0.02 with 1605 points.
  Transforming atomic orbitals to a uniform radial grid of dG=0.02 with 432 points.
  Core radius for overlap checks: 1.55 bohrs.

Reading pseudopotential file '/home/guoxy/vasp/jdftx-1.5.0/build/pseudopotentials/GBRV/p_pbe.uspp':
  Title: P.  Created by USPP 7.3.6 on 11-6-15
  Reference state energy: -7.561951.  5 valence electrons in orbitals:
    |300>  occupation: 2  eigenvalue: -0.513368
    |310>  occupation: 3  eigenvalue: -0.202371
  lMax: 2  lLocal: 3  QijEcut: 5
  6 projectors sampled on a log grid with 631 points:
    l: 0  eig: -0.513363  rCut: 1.5
    l: 0  eig: 0.500000  rCut: 1.5
    l: 1  eig: -0.202372  rCut: 1.5
    l: 1  eig: 1.000000  rCut: 1.5
    l: 2  eig: -0.500000  rCut: 1.5
    l: 2  eig: 1.500000  rCut: 1.5
  Partial core density with radius 1.35
  Transforming core density to a uniform radial grid of dG=0.02 with 1605 points.
  Transforming local potential to a uniform radial grid of dG=0.02 with 1605 points.
  Transforming nonlocal projectors to a uniform radial grid of dG=0.02 with 432 points.
  Transforming density augmentations to a uniform radial grid of dG=0.02 with 1605 points.
  Transforming atomic orbitals to a uniform radial grid of dG=0.02 with 432 points.
  Core radius for overlap checks: 1.50 bohrs.

Reading pseudopotential file '/home/guoxy/vasp/jdftx-1.5.0/build/pseudopotentials/GBRV/s_pbe.uspp':
  Title: S.  Created by USPP 7.3.6 on 1-4-15
  Reference state energy: -11.898476.  6 valence electrons in orbitals:
    |300>  occupation: 2  eigenvalue: -0.634167
    |310>  occupation: 4  eigenvalue: -0.257568
  lMax: 2  lLocal: 3  QijEcut: 6
  6 projectors sampled on a log grid with 635 points:
    l: 0  eig: -0.634161  rCut: 1.5
    l: 0  eig: 1.500000  rCut: 1.5
    l: 1  eig: -0.257567  rCut: 1.5
    l: 1  eig: 1.500000  rCut: 1.5
    l: 2  eig: -1.000000  rCut: 1.5
    l: 2  eig: 1.500000  rCut: 1.5
  Partial core density with radius 1.15
  Transforming core density to a uniform radial grid of dG=0.02 with 1605 points.
  Transforming local potential to a uniform radial grid of dG=0.02 with 1605 points.
  Transforming nonlocal projectors to a uniform radial grid of dG=0.02 with 432 points.
  Transforming density augmentations to a uniform radial grid of dG=0.02 with 1605 points.
  Transforming atomic orbitals to a uniform radial grid of dG=0.02 with 432 points.
  Core radius for overlap checks: 1.50 bohrs.

Initialized 4 species with 39 total atoms.

Folded 1 k-points by 3x3x1 to 9 k-points.

---------- Setting up k-points, bands, fillings ----------
Adding inversion symmetry to k-mesh for non-inversion-symmetric unit cell.
Reduced to 5 k-points under symmetry. 
Computing the number of bands and number of electrons
Reading initial fillings from file NbTe2.fillings.
nElectrons: 264.720048   nBands: 196   nStates: 5

----- Setting up reduced wavefunction bases (one per k-point) -----
average nbasis = 61788.111 , ideal nbasis = 61795.097

---------- Setting up coulomb interaction ----------
Fluid mode embedding: using embedded box, but periodic Coulomb kernel.
(Fluid response is responsible for (approximate) separation between periodic images.)
Setting up double-sized grid for truncated Coulomb potentials:
R = 
[    21.9941    10.9971          0  ]
[          0    19.1539          0  ]
[          0          0    68.6723  ]
unit cell volume = 28929.8
G =
[   0.285675  -0.164019          0  ]
[          0   0.328037          0  ]
[          0          0  0.0914952  ]
Chosen fftbox size, S = [  100  100  320  ]
Integer grid location selected as the embedding center:
   Grid: [  0  0  80  ]
   Lattice: [  0  0  0.5  ]
   Cartesian: [  0  0  17.1681  ]
Constructing Wigner-Seitz cell: 8 faces (6 quadrilaterals, 2 hexagons)
Range-separation parameter for embedded mesh potentials due to point charges: 0.592887 bohrs.

Initializing van der Waals corrections
	NOTE: vdW corrections apply only for interactions with fluid.
	Li:  C6:   27.93 Eh-a0^6  R0: 1.559 a0
	Ni:  C6:  187.33 Eh-a0^6  R0: 2.952 a0
	 P:  C6:  135.99 Eh-a0^6  R0: 3.222 a0
	 S:  C6:   96.61 Eh-a0^6  R0: 3.180 a0

---------- Setting up ewald sum ----------
Optimum gaussian width for ewald sums = 6.650398 bohr.
Real space sum over 605 unit cells with max indices [  5  5  2  ]
Reciprocal space sum over 6825 terms with max indices [  6  7  17  ]

---------- Allocating electronic variables ----------
Initializing wave functions:  reading from 'NbTe2.wfns'
----- createFluidSolver() ----- (Fluid-side solver setup)
   Initializing fluid molecule 'H2O'
     Initializing site 'O'
       Electron density: proportional to exp(-r/0.36935)*erfc((r-0.51523)/0.36823) with norm 6.826
       Charge density: gaussian nuclear width 0.478731 with net site charge 0.826
       Polarizability: cuspless exponential with width 0.32 and norm 3.73
       Hard sphere radius: 2.57003 bohrs
       Positions in reference frame:
         [ +0.000000 +0.000000 +0.000000 ]
     Initializing site 'H'
       Electron density: proportional to exp(-r/0.34641)*erfc((r-0)/0.390882) with norm 0.587
       Charge density: gaussian nuclear width 0.377945 with net site charge -0.413
       Polarizability: cuspless exponential with width 0.39 and norm 3.3
       Positions in reference frame:
         [ +0.000000 -1.441945 +1.122523 ]
         [ +0.000000 +1.441945 +1.122523 ]
     Net charge: 0   dipole magnitude: 0.927204
     Initializing spherical shell mfKernel with radius 2.61727 Bohr
     deltaS corrections:
       site 'O': -7.54299
       site 'H': -6.83917
   Initializing fluid molecule 'Na+'
     Initializing site 'Na'
       Electron density: proportional to exp(-r/0.19682)*erfc((r-0.71491)/0.41314) with norm 8.1383
       Charge density: gaussian nuclear width 0.365347 with net site charge -1
       Hard sphere radius: 1.86327 bohrs
       Positions in reference frame:
         [ +0.000000 +0.000000 +0.000000 ]
     Net charge: -1   dipole magnitude: 0
     Initializing gaussian mfKernel with width: 1.55004 Bohr
     deltaS corrections:
       site 'Na': -22.3555
   Initializing fluid molecule 'F-'
     Initializing site 'F'
       Electron density: proportional to exp(-r/0.38886)*erfc((r-0)/0.438782) with norm 8
       Charge density: gaussian nuclear width 0.374796 with net site charge 1
       Hard sphere radius: 2.39995 bohrs
       Positions in reference frame:
         [ +0.000000 +0.000000 +0.000000 ]
     Net charge: 1   dipole magnitude: 0
     Initializing gaussian mfKernel with width: 1.59012 Bohr
     deltaS corrections:
       site 'F': -9.04335

Correction to mu due to finite nuclear width = -0.00902008
   Cavity determined by nc: 0.00142 and sigma: 0.707107
   Nonlocal vdW cavity from gaussian model electron density with norm = 8 and sigma = 0.993594 bohr
   Charge asymmetry in cavity with sensitivity pCavity = 36.5 e-bohr/Eh
   Electrostatic cavity expanded by eta = 1.46 bohrs
   Weighted density cavitation model constrained by Nbulk: 0.0049383 bohr^-3, Pvap: 3.14029 kPa, Rvdw: 2.61727 bohr and sigmaBulk: 4.62e-05 Eh/bohr^2 at T: 298 K.
   Weighted density dispersion model using vdW pair potentials with single solvent site with sqrtC6eff: 0.77 SI.
Reading fluid state from 'NbTe2.fluidState'


---- Citations for features of the code used in this run ----

   Software package:
      R. Sundararaman, K. Letchworth-Weaver, K.A. Schwarz, D. Gunceler, Y. Ozhabes and T.A. Arias, 'JDFTx: software for joint density-functional theory', SoftwareX 6, 278 (2017)

   gga-PBE exchange-correlation functional:
      J.P. Perdew, K. Burke and M. Ernzerhof, Phys. Rev. Lett. 77, 3865 (1996)

   Pseudopotentials:
      KF Garrity, JW Bennett, KM Rabe and D Vanderbilt, Comput. Mater. Sci. 81, 446 (2014)

   Truncated Coulomb potentials:
      R. Sundararaman and T.A. Arias, Phys. Rev. B 87, 165122 (2013)

   Van der Waals correction pair-potentials:
      S. Grimme, J. Comput. Chem. 27, 1787 (2006)

   Charge-asymmetric nonlocally-determined local-electric (CANDLE) solvation model:
      R. Sundararaman and W.A. Goddard III, J. Chem. Phys. 142, 064107 (2015)

   Total energy minimization with Auxiliary Hamiltonian:
      C. Freysoldt, S. Boeck, and J. Neugebauer, Phys. Rev. B 79, 241103(R) (2009)

   Grand-canonical (fixed-potential) DFT:
      R. Sundararaman, W. A. Goddard III and T. A. Arias, J. Chem. Phys. 146, 114104 (2017)

This list may not be complete. Please suggest additional citations or
report any other bugs at https://github.com/shankar1729/jdftx/issues

Initialization completed successfully at t[s]:     19.62

Shifting auxilliary hamiltonian by -0.073486 to set nElectrons=264.720048
	Linear fluid (dielectric constant: 78.4, screening length: 5.74355 Bohr) occupying 0.773071 of unit cell:	Completed after 2 iterations at t[s]:     26.74

-------- Electronic minimization -----------
	Linear fluid (dielectric constant: 78.4, screening length: 5.74355 Bohr) occupying 0.773071 of unit cell:	Completed after 0 iterations at t[s]:     36.01
	FillingsUpdate:  mu: -0.244750400  nElectrons: 264.720048
ElecMinimize: Iter:   0  G: -943.182677775432467  |grad|_K:  1.190e-04  alpha:  1.000e+00
	Linear fluid (dielectric constant: 78.4, screening length: 5.74355 Bohr) occupying 0.763638 of unit cell:	Completed after 25 iterations at t[s]:     59.92
	Linear fluid (dielectric constant: 78.4, screening length: 5.74355 Bohr) occupying 0.768416 of unit cell:	Completed after 29 iterations at t[s]:     78.09
	FillingsUpdate:  mu: -0.244750400  nElectrons: 264.443835
	SubspaceRotationAdjust: set factor to 0.505
ElecMinimize: Iter:   1  G: -943.200137194896797  |grad|_K:  8.637e-05  alpha:  1.209e-02  linmin: -3.909e-02  t[s]:     93.50
	Linear fluid (dielectric constant: 78.4, screening length: 5.74355 Bohr) occupying 0.763410 of unit cell:	Completed after 18 iterations at t[s]:    107.54
	Linear fluid (dielectric constant: 78.4, screening length: 5.74355 Bohr) occupying 0.758501 of unit cell:	Completed after 18 iterations at t[s]:    119.87
	FillingsUpdate:  mu: -0.244750400  nElectrons: 263.690108
	SubspaceRotationAdjust: set factor to 0.335
ElecMinimize: Iter:   2  G: -943.223761443058606  |grad|_K:  5.309e-05  alpha:  2.908e-02  linmin: -1.446e-03  t[s]:    126.65
	Linear fluid (dielectric constant: 78.4, screening length: 5.74355 Bohr) occupying 0.756807 of unit cell:	Completed after 13 iterations at t[s]:    134.21
ElecMinimize: 	Predicted alpha/alphaT>3.000000, increasing alphaT to 8.724240e-02.
	Linear fluid (dielectric constant: 78.4, screening length: 5.74355 Bohr) occupying 0.756099 of unit cell:	Completed after 16 iterations at t[s]:    144.98
	Linear fluid (dielectric constant: 78.4, screening length: 5.74355 Bohr) occupying 0.756253 of unit cell:	Completed after 16 iterations at t[s]:    154.71
	FillingsUpdate:  mu: -0.244750400  nElectrons: 262.571986
	SubspaceRotationAdjust: set factor to 0.231
ElecMinimize: Iter:   3  G: -943.248462723402895  |grad|_K:  4.776e-05  alpha:  1.252e-01  linmin:  1.145e-03  t[s]:    165.36
	Linear fluid (dielectric constant: 78.4, screening length: 5.74355 Bohr) occupying 0.757015 of unit cell:	Completed after 18 iterations at t[s]:    177.50
	Linear fluid (dielectric constant: 78.4, screening length: 5.74355 Bohr) occupying 0.756577 of unit cell:	Completed after 17 iterations at t[s]:    195.58
	FillingsUpdate:  mu: -0.244750400  nElectrons: 262.290427
	SubspaceRotationAdjust: set factor to 0.209
ElecMinimize: Iter:   4  G: -943.255239292249598  |grad|_K:  3.802e-05  alpha:  5.380e-02  linmin: -2.799e-04  t[s]:    212.79
	Linear fluid (dielectric constant: 78.4, screening length: 5.74355 Bohr) occupying 0.756901 of unit cell:	Completed after 10 iterations at t[s]:    225.03
	Linear fluid (dielectric constant: 78.4, screening length: 5.74355 Bohr) occupying 0.757107 of unit cell:	Completed after 8 iterations at t[s]:    240.39
	FillingsUpdate:  mu: -0.244750400  nElectrons: 262.111755
	SubspaceRotationAdjust: set factor to 0.278
ElecMinimize: Iter:   5  G: -943.263313768157786  |grad|_K:  3.757e-05  alpha:  8.798e-02  linmin: -6.074e-05  t[s]:    255.45
	Linear fluid (dielectric constant: 78.4, screening length: 5.74355 Bohr) occupying 0.757803 of unit cell:	Completed after 14 iterations at t[s]:    268.23
	Linear fluid (dielectric constant: 78.4, screening length: 5.74355 Bohr) occupying 0.757959 of unit cell:	Completed after 11 iterations at t[s]:    285.32
	FillingsUpdate:  mu: -0.244750400  nElectrons: 261.966431
	SubspaceRotationAdjust: set factor to 0.28
ElecMinimize: Iter:   6  G: -943.272719439999946  |grad|_K:  4.126e-05  alpha:  1.079e-01  linmin: -7.390e-05  t[s]:    301.82
	Linear fluid (dielectric constant: 78.4, screening length: 5.74355 Bohr) occupying 0.759203 of unit cell:	Completed after 16 iterations at t[s]:    315.95
	Linear fluid (dielectric constant: 78.4, screening length: 5.74355 Bohr) occupying 0.758937 of unit cell:	Completed after 12 iterations at t[s]:    332.99
	FillingsUpdate:  mu: -0.244750400  nElectrons: 261.838803
	SubspaceRotationAdjust: set factor to 0.239
ElecMinimize: Iter:   7  G: -943.281572349019257  |grad|_K:  3.424e-05  alpha:  8.455e-02  linmin: -1.587e-05  t[s]:    345.58
	Linear fluid (dielectric constant: 78.4, screening length: 5.74355 Bohr) occupying 0.759757 of unit cell:	Completed after 16 iterations at t[s]:    356.32
	Linear fluid (dielectric constant: 78.4, screening length: 5.74355 Bohr) occupying 0.759663 of unit cell:	Completed after 8 iterations at t[s]:    369.09
	FillingsUpdate:  mu: -0.244750400  nElectrons: 261.749441
	SubspaceRotationAdjust: set factor to 0.313
ElecMinimize: Iter:   8  G: -943.286898954790331  |grad|_K:  2.590e-05  alpha:  7.482e-02  linmin: -1.657e-05  t[s]:    378.52
	Linear fluid (dielectric constant: 78.4, screening length: 5.74355 Bohr) occupying 0.760189 of unit cell:	Completed after 14 iterations at t[s]:    387.22
	Linear fluid (dielectric constant: 78.4, screening length: 5.74355 Bohr) occupying 0.760328 of unit cell:	Completed after 8 iterations at t[s]:    399.01
	FillingsUpdate:  mu: -0.244750400  nElectrons: 261.681058
	SubspaceRotationAdjust: set factor to 0.372
ElecMinimize: Iter:   9  G: -943.290763344601828  |grad|_K:  2.436e-05  alpha:  9.465e-02  linmin: -1.476e-05  t[s]:    408.76
	Linear fluid (dielectric constant: 78.4, screening length: 5.74355 Bohr) occupying 0.761043 of unit cell:	Completed after 14 iterations at t[s]:    417.41
	Linear fluid (dielectric constant: 78.4, screening length: 5.74355 Bohr) occupying 0.761090 of unit cell:	Completed after 3 iterations at t[s]:    429.54
	FillingsUpdate:  mu: -0.244750400  nElectrons: 261.625230
	SubspaceRotationAdjust: set factor to 0.377
ElecMinimize: Iter:  10  G: -943.294410538826810  |grad|_K:  2.453e-05  alpha:  1.010e-01  linmin: -4.871e-06  t[s]:    440.99
	Linear fluid (dielectric constant: 78.4, screening length: 5.74355 Bohr) occupying 0.761968 of unit cell:	Completed after 14 iterations at t[s]:    452.49
	Linear fluid (dielectric constant: 78.4, screening length: 5.74355 Bohr) occupying 0.761905 of unit cell:	Completed after 3 iterations at t[s]:    465.72
	FillingsUpdate:  mu: -0.244750400  nElectrons: 261.580186
	SubspaceRotationAdjust: set factor to 0.433
ElecMinimize: Iter:  11  G: -943.297833067155352  |grad|_K:  2.151e-05  alpha:  9.366e-02  linmin: -4.139e-06  t[s]:    477.86
	Linear fluid (dielectric constant: 78.4, screening length: 5.74355 Bohr) occupying 0.762593 of unit cell:	Completed after 8 iterations at t[s]:    489.96
	Linear fluid (dielectric constant: 78.4, screening length: 5.74355 Bohr) occupying 0.762470 of unit cell:	Completed after 6 iterations at t[s]:    502.47
	FillingsUpdate:  mu: -0.244750400  nElectrons: 261.541654
	SubspaceRotationAdjust: set factor to 0.536
ElecMinimize: Iter:  12  G: -943.299988153867957  |grad|_K:  1.616e-05  alpha:  7.674e-02  linmin: -2.133e-06  t[s]:    515.27
	Linear fluid (dielectric constant: 78.4, screening length: 5.74355 Bohr) occupying 0.762828 of unit cell:	Completed after 12 iterations at t[s]:    526.60
	Linear fluid (dielectric constant: 78.4, screening length: 5.74355 Bohr) occupying 0.762845 of unit cell:	Completed after 3 iterations at t[s]:    534.39
	FillingsUpdate:  mu: -0.244750400  nElectrons: 261.501063
	SubspaceRotationAdjust: set factor to 0.587
ElecMinimize: Iter:  13  G: -943.301260638253780  |grad|_K:  1.466e-05  alpha:  8.031e-02  linmin:  2.234e-06  t[s]:    541.68
	Linear fluid (dielectric constant: 78.4, screening length: 5.74355 Bohr) occupying 0.763182 of unit cell:	Completed after 13 iterations at t[s]:    549.29
	Linear fluid (dielectric constant: 78.4, screening length: 5.74355 Bohr) occupying 0.763267 of unit cell:	Completed after 9 iterations at t[s]:    556.96
	FillingsUpdate:  mu: -0.244750400  nElectrons: 261.455915
	SubspaceRotationAdjust: set factor to 0.688
ElecMinimize: Iter:  14  G: -943.302572432295051  |grad|_K:  1.573e-05  alpha:  1.007e-01  linmin:  1.079e-05  t[s]:    562.80
	Linear fluid (dielectric constant: 78.4, screening length: 5.74355 Bohr) occupying 0.763754 of unit cell:	Completed after 10 iterations at t[s]:    568.83
	Linear fluid (dielectric constant: 78.4, screening length: 5.74355 Bohr) occupying 0.763654 of unit cell:	Completed after 8 iterations at t[s]:    575.43
	FillingsUpdate:  mu: -0.244750400  nElectrons: 261.459658
	SubspaceRotationAdjust: set factor to 0.829
ElecMinimize: Iter:  15  G: -943.303768514951912  |grad|_K:  1.370e-05  alpha:  7.971e-02  linmin:  1.004e-05  t[s]:    586.90
	Linear fluid (dielectric constant: 78.4, screening length: 5.74355 Bohr) occupying 0.763934 of unit cell:	Completed after 14 iterations at t[s]:    598.72
	Linear fluid (dielectric constant: 78.4, screening length: 5.74355 Bohr) occupying 0.763900 of unit cell:	Completed after 7 iterations at t[s]:    607.09
	FillingsUpdate:  mu: -0.244750400  nElectrons: 261.528179
	SubspaceRotationAdjust: set factor to 0.697
ElecMinimize: Iter:  16  G: -943.304562765378250  |grad|_K:  1.301e-05  alpha:  6.991e-02  linmin:  1.760e-05  t[s]:    615.94
	Linear fluid (dielectric constant: 78.4, screening length: 5.74355 Bohr) occupying 0.764098 of unit cell:	Completed after 14 iterations at t[s]:    627.40
	Linear fluid (dielectric constant: 78.4, screening length: 5.74355 Bohr) occupying 0.764099 of unit cell:	Completed after 0 iterations at t[s]:    643.85
	FillingsUpdate:  mu: -0.244750400  nElectrons: 261.617688
	SubspaceRotationAdjust: set factor to 0.693
ElecMinimize: Iter:  17  G: -943.305280096870547  |grad|_K:  1.065e-05  alpha:  7.014e-02  linmin: -2.994e-05  t[s]:    661.24
	Linear fluid (dielectric constant: 78.4, screening length: 5.74355 Bohr) occupying 0.764195 of unit cell:	Completed after 14 iterations at t[s]:    674.30
	Linear fluid (dielectric constant: 78.4, screening length: 5.74355 Bohr) occupying 0.764194 of unit cell:	Completed after 0 iterations at t[s]:    687.61
	FillingsUpdate:  mu: -0.244750400  nElectrons: 261.652134
	SubspaceRotationAdjust: set factor to 0.79
ElecMinimize: Iter:  18  G: -943.305762296128023  |grad|_K:  9.176e-06  alpha:  6.977e-02  linmin: -1.502e-05  t[s]:    700.65
	Linear fluid (dielectric constant: 78.4, screening length: 5.74355 Bohr) occupying 0.764225 of unit cell:	Completed after 12 iterations at t[s]:    712.66
	Linear fluid (dielectric constant: 78.4, screening length: 5.74355 Bohr) occupying 0.764234 of unit cell:	Completed after 7 iterations at t[s]:    729.19
	FillingsUpdate:  mu: -0.244750400  nElectrons: 261.645700
	SubspaceRotationAdjust: set factor to 0.771
ElecMinimize: Iter:  19  G: -943.306239586650236  |grad|_K:  9.388e-06  alpha:  9.316e-02  linmin: -1.002e-05  t[s]:    745.88
	Linear fluid (dielectric constant: 78.4, screening length: 5.74355 Bohr) occupying 0.764219 of unit cell:	Completed after 11 iterations at t[s]:    759.82
	Linear fluid (dielectric constant: 78.4, screening length: 5.74355 Bohr) occupying 0.764224 of unit cell:	Completed after 9 iterations at t[s]:    775.36
	FillingsUpdate:  mu: -0.244750400  nElectrons: 261.616573
	SubspaceRotationAdjust: set factor to 0.892
ElecMinimize: Iter:  20  G: -943.306584238191249  |grad|_K:  6.638e-06  alpha:  6.447e-02  linmin: -9.979e-06  t[s]:    792.02
	Linear fluid (dielectric constant: 78.4, screening length: 5.74355 Bohr) occupying 0.764183 of unit cell:	Completed after 12 iterations at t[s]:    806.29
	Linear fluid (dielectric constant: 78.4, screening length: 5.74355 Bohr) occupying 0.764178 of unit cell:	Completed after 7 iterations at t[s]:    824.92
	FillingsUpdate:  mu: -0.244750400  nElectrons: 261.586783
	SubspaceRotationAdjust: set factor to 0.997
ElecMinimize: Iter:  21  G: -943.306780614948138  |grad|_K:  6.524e-06  alpha:  7.349e-02  linmin:  4.079e-05  t[s]:    842.78
	Linear fluid (dielectric constant: 78.4, screening length: 5.74355 Bohr) occupying 0.764097 of unit cell:	Completed after 12 iterations at t[s]:    855.81
	Linear fluid (dielectric constant: 78.4, screening length: 5.74355 Bohr) occupying 0.764075 of unit cell:	Completed after 8 iterations at t[s]:    866.63
	FillingsUpdate:  mu: -0.244750400  nElectrons: 261.562890
	SubspaceRotationAdjust: set factor to 0.816
ElecMinimize: Iter:  22  G: -943.307021716518193  |grad|_K:  7.381e-06  alpha:  9.386e-02  linmin:  1.143e-05  t[s]:    874.30
	Linear fluid (dielectric constant: 78.4, screening length: 5.74355 Bohr) occupying 0.763903 of unit cell:	Completed after 12 iterations at t[s]:    884.06
	Linear fluid (dielectric constant: 78.4, screening length: 5.74355 Bohr) occupying 0.763959 of unit cell:	Completed after 8 iterations at t[s]:    894.92
	FillingsUpdate:  mu: -0.244750400  nElectrons: 261.593149
	SubspaceRotationAdjust: set factor to 0.826
ElecMinimize: Iter:  23  G: -943.307231476619222  |grad|_K:  5.367e-06  alpha:  6.353e-02  linmin:  4.651e-06  t[s]:    902.19
	Linear fluid (dielectric constant: 78.4, screening length: 5.74355 Bohr) occupying 0.763876 of unit cell:	Completed after 12 iterations at t[s]:    911.08
	Linear fluid (dielectric constant: 78.4, screening length: 5.74355 Bohr) occupying 0.763872 of unit cell:	Completed after 3 iterations at t[s]:    919.49
	FillingsUpdate:  mu: -0.244750400  nElectrons: 261.647567
	SubspaceRotationAdjust: set factor to 0.952
ElecMinimize: Iter:  24  G: -943.307347341153104  |grad|_K:  4.290e-06  alpha:  6.637e-02  linmin: -2.644e-05  t[s]:    929.29
	Linear fluid (dielectric constant: 78.4, screening length: 5.74355 Bohr) occupying 0.763793 of unit cell:	Completed after 10 iterations at t[s]:    938.60
	Linear fluid (dielectric constant: 78.4, screening length: 5.74355 Bohr) occupying 0.763770 of unit cell:	Completed after 8 iterations at t[s]:    952.04
	FillingsUpdate:  mu: -0.244750400  nElectrons: 261.694907
	SubspaceRotationAdjust: set factor to 0.816
ElecMinimize: Iter:  25  G: -943.307444531329452  |grad|_K:  4.706e-06  alpha:  8.606e-02  linmin: -5.887e-05  t[s]:    967.05
	Linear fluid (dielectric constant: 78.4, screening length: 5.74355 Bohr) occupying 0.763617 of unit cell:	Completed after 4 iterations at t[s]:    976.16
	Linear fluid (dielectric constant: 78.4, screening length: 5.74355 Bohr) occupying 0.763618 of unit cell:	Completed after 0 iterations at t[s]:    987.93
	FillingsUpdate:  mu: -0.244750400  nElectrons: 261.706929
	SubspaceRotationAdjust: set factor to 0.591
ElecMinimize: Iter:  26  G: -943.307560498765611  |grad|_K:  4.381e-06  alpha:  8.512e-02  linmin:  2.770e-05  t[s]:   1001.07
	Linear fluid (dielectric constant: 78.4, screening length: 5.74355 Bohr) occupying 0.763468 of unit cell:	Completed after 12 iterations at t[s]:   1012.73
	Linear fluid (dielectric constant: 78.4, screening length: 5.74355 Bohr) occupying 0.763471 of unit cell:	Completed after 0 iterations at t[s]:   1024.85
	FillingsUpdate:  mu: -0.244750400  nElectrons: 261.688546
	SubspaceRotationAdjust: set factor to 0.593
ElecMinimize: Iter:  27  G: -943.307657086982204  |grad|_K:  3.633e-06  alpha:  8.346e-02  linmin:  3.797e-06  t[s]:   1037.25
	Linear fluid (dielectric constant: 78.4, screening length: 5.74355 Bohr) occupying 0.763363 of unit cell:	Completed after 10 iterations at t[s]:   1048.92
	Linear fluid (dielectric constant: 78.4, screening length: 5.74355 Bohr) occupying 0.763362 of unit cell:	Completed after 0 iterations at t[s]:   1061.20
	FillingsUpdate:  mu: -0.244750400  nElectrons: 261.679165
	SubspaceRotationAdjust: set factor to 0.851
ElecMinimize: Iter:  28  G: -943.307724165754166  |grad|_K:  2.442e-06  alpha:  8.388e-02  linmin:  1.312e-05  t[s]:   1076.89
	Linear fluid (dielectric constant: 78.4, screening length: 5.74355 Bohr) occupying 0.763313 of unit cell:	Completed after 4 iterations at t[s]:   1087.40
	Linear fluid (dielectric constant: 78.4, screening length: 5.74355 Bohr) occupying 0.763310 of unit cell:	Completed after 0 iterations at t[s]:   1100.35
	FillingsUpdate:  mu: -0.244750400  nElectrons: 261.680545
	SubspaceRotationAdjust: set factor to 0.863
ElecMinimize: Iter:  29  G: -943.307756042209689  |grad|_K:  2.344e-06  alpha:  8.817e-02  linmin: -1.708e-04  t[s]:   1112.90
	Linear fluid (dielectric constant: 78.4, screening length: 5.74355 Bohr) occupying 0.763264 of unit cell:	Completed after 6 iterations at t[s]:   1121.79
	Linear fluid (dielectric constant: 78.4, screening length: 5.74355 Bohr) occupying 0.763245 of unit cell:	Completed after 4 iterations at t[s]:   1131.44
	FillingsUpdate:  mu: -0.244750400  nElectrons: 261.678704
	SubspaceRotationAdjust: set factor to 0.928
ElecMinimize: Iter:  30  G: -943.307799464970685  |grad|_K:  2.504e-06  alpha:  1.233e-01  linmin: -1.509e-04  t[s]:   1140.73
	Linear fluid (dielectric constant: 78.4, screening length: 5.74355 Bohr) occupying 0.763178 of unit cell:	Completed after 11 iterations at t[s]:   1148.59
	Linear fluid (dielectric constant: 78.4, screening length: 5.74355 Bohr) occupying 0.763205 of unit cell:	Completed after 8 iterations at t[s]:   1156.61
	FillingsUpdate:  mu: -0.244750400  nElectrons: 261.674896
	SubspaceRotationAdjust: set factor to 0.956
ElecMinimize: Iter:  31  G: -943.307828709119008  |grad|_K:  2.063e-06  alpha:  7.481e-02  linmin: -8.938e-06  t[s]:   1162.78
	Linear fluid (dielectric constant: 78.4, screening length: 5.74355 Bohr) occupying 0.763185 of unit cell:	Completed after 8 iterations at t[s]:   1168.95
	Linear fluid (dielectric constant: 78.4, screening length: 5.74355 Bohr) occupying 0.763182 of unit cell:	Completed after 3 iterations at t[s]:   1177.08
	FillingsUpdate:  mu: -0.244750400  nElectrons: 261.685314
	SubspaceRotationAdjust: set factor to 1.04
ElecMinimize: Iter:  32  G: -943.307850759969483  |grad|_K:  1.868e-06  alpha:  8.523e-02  linmin: -6.732e-05  t[s]:   1189.08
	Linear fluid (dielectric constant: 78.4, screening length: 5.74355 Bohr) occupying 0.763174 of unit cell:	Completed after 9 iterations at t[s]:   1201.44
	Linear fluid (dielectric constant: 78.4, screening length: 5.74355 Bohr) occupying 0.763175 of unit cell:	Completed after 3 iterations at t[s]:   1215.50
	FillingsUpdate:  mu: -0.244750400  nElectrons: 261.699621
	SubspaceRotationAdjust: set factor to 1.04
ElecMinimize: Iter:  33  G: -943.307866661655225  |grad|_K:  1.611e-06  alpha:  7.460e-02  linmin:  1.554e-05  t[s]:   1230.87
	Linear fluid (dielectric constant: 78.4, screening length: 5.74355 Bohr) occupying 0.763177 of unit cell:	Completed after 3 iterations at t[s]:   1243.16
	Linear fluid (dielectric constant: 78.4, screening length: 5.74355 Bohr) occupying 0.763177 of unit cell:	Completed after 2 iterations at t[s]:   1257.38
	FillingsUpdate:  mu: -0.244750400  nElectrons: 261.700414
	SubspaceRotationAdjust: set factor to 1.13
ElecMinimize: Iter:  34  G: -943.307877161319198  |grad|_K:  1.265e-06  alpha:  6.732e-02  linmin:  3.132e-05  t[s]:   1273.00
	Linear fluid (dielectric constant: 78.4, screening length: 5.74355 Bohr) occupying 0.763183 of unit cell:	Completed after 6 iterations at t[s]:   1284.93
	Linear fluid (dielectric constant: 78.4, screening length: 5.74355 Bohr) occupying 0.763185 of unit cell:	Completed after 4 iterations at t[s]:   1297.91
	FillingsUpdate:  mu: -0.244750400  nElectrons: 261.692184
	SubspaceRotationAdjust: set factor to 1.05
ElecMinimize: Iter:  35  G: -943.307885509227276  |grad|_K:  1.228e-06  alpha:  8.658e-02  linmin: -4.202e-05  t[s]:   1313.02
	Linear fluid (dielectric constant: 78.4, screening length: 5.74355 Bohr) occupying 0.763200 of unit cell:	Completed after 4 iterations at t[s]:   1324.41
	Linear fluid (dielectric constant: 78.4, screening length: 5.74355 Bohr) occupying 0.763199 of unit cell:	Completed after 3 iterations at t[s]:   1337.07
	FillingsUpdate:  mu: -0.244750400  nElectrons: 261.686831
	SubspaceRotationAdjust: set factor to 0.788
ElecMinimize: Iter:  36  G: -943.307892551264786  |grad|_K:  1.162e-06  alpha:  7.788e-02  linmin: -1.300e-04  t[s]:   1349.44
	Linear fluid (dielectric constant: 78.4, screening length: 5.74355 Bohr) occupying 0.763216 of unit cell:	Completed after 4 iterations at t[s]:   1359.09
	Linear fluid (dielectric constant: 78.4, screening length: 5.74355 Bohr) occupying 0.763218 of unit cell:	Completed after 2 iterations at t[s]:   1370.84
	FillingsUpdate:  mu: -0.244750400  nElectrons: 261.685562
	SubspaceRotationAdjust: set factor to 0.857
ElecMinimize: Iter:  37  G: -943.307900040464460  |grad|_K:  9.224e-07  alpha:  9.010e-02  linmin: -4.586e-05  t[s]:   1382.84
	Linear fluid (dielectric constant: 78.4, screening length: 5.74355 Bohr) occupying 0.763235 of unit cell:	Completed after 3 iterations at t[s]:   1393.43
	Linear fluid (dielectric constant: 78.4, screening length: 5.74355 Bohr) occupying 0.763232 of unit cell:	Completed after 1 iterations at t[s]:   1404.45
	FillingsUpdate:  mu: -0.244750400  nElectrons: 261.685993
	SubspaceRotationAdjust: set factor to 0.85
ElecMinimize: Iter:  38  G: -943.307903966177719  |grad|_K:  7.585e-07  alpha:  7.685e-02  linmin:  4.871e-05  t[s]:   1411.39
	Linear fluid (dielectric constant: 78.4, screening length: 5.74355 Bohr) occupying 0.763245 of unit cell:	Completed after 3 iterations at t[s]:   1417.40
	Linear fluid (dielectric constant: 78.4, screening length: 5.74355 Bohr) occupying 0.763252 of unit cell:	Completed after 3 iterations at t[s]:   1425.29
	FillingsUpdate:  mu: -0.244750400  nElectrons: 261.687066
	SubspaceRotationAdjust: set factor to 0.635
ElecMinimize: Iter:  39  G: -943.307908140535346  |grad|_K:  8.220e-07  alpha:  1.217e-01  linmin:  4.428e-05  t[s]:   1434.25
	Linear fluid (dielectric constant: 78.4, screening length: 5.74355 Bohr) occupying 0.763277 of unit cell:	Completed after 4 iterations at t[s]:   1440.13
	Linear fluid (dielectric constant: 78.4, screening length: 5.74355 Bohr) occupying 0.763270 of unit cell:	Completed after 2 iterations at t[s]:   1448.27
	FillingsUpdate:  mu: -0.244750400  nElectrons: 261.685261
	SubspaceRotationAdjust: set factor to 0.614
ElecMinimize: Iter:  40  G: -943.307911620016625  |grad|_K:  6.305e-07  alpha:  8.613e-02  linmin:  1.911e-05  t[s]:   1457.10
	Linear fluid (dielectric constant: 78.4, screening length: 5.74355 Bohr) occupying 0.763281 of unit cell:	Completed after 4 iterations at t[s]:   1464.15
	Linear fluid (dielectric constant: 78.4, screening length: 5.74355 Bohr) occupying 0.763284 of unit cell:	Completed after 3 iterations at t[s]:   1475.36
	FillingsUpdate:  mu: -0.244750400  nElectrons: 261.679949
	SubspaceRotationAdjust: set factor to 0.764
ElecMinimize: Iter:  41  G: -943.307914260662869  |grad|_K:  4.993e-07  alpha:  1.125e-01  linmin:  2.119e-04  t[s]:   1489.05
	Linear fluid (dielectric constant: 78.4, screening length: 5.74355 Bohr) occupying 0.763294 of unit cell:	Completed after 4 iterations at t[s]:   1498.57
	Linear fluid (dielectric constant: 78.4, screening length: 5.74355 Bohr) occupying 0.763293 of unit cell:	Completed after 0 iterations at t[s]:   1508.99
	FillingsUpdate:  mu: -0.244750400  nElectrons: 261.677201
	SubspaceRotationAdjust: set factor to 0.712
ElecMinimize: Iter:  42  G: -943.307915698158467  |grad|_K:  4.404e-07  alpha:  9.763e-02  linmin:  5.704e-04  t[s]:   1521.57
	Linear fluid (dielectric constant: 78.4, screening length: 5.74355 Bohr) occupying 0.763299 of unit cell:	Completed after 3 iterations at t[s]:   1530.79
	Linear fluid (dielectric constant: 78.4, screening length: 5.74355 Bohr) occupying 0.763300 of unit cell:	Completed after 0 iterations at t[s]:   1544.24
	FillingsUpdate:  mu: -0.244750400  nElectrons: 261.678343
	SubspaceRotationAdjust: set factor to 0.924
ElecMinimize: Iter:  43  G: -943.307916928819850  |grad|_K:  3.682e-07  alpha:  1.135e-01  linmin: -3.562e-04  t[s]:   1557.65
	Linear fluid (dielectric constant: 78.4, screening length: 5.74355 Bohr) occupying 0.763304 of unit cell:	Completed after 3 iterations at t[s]:   1567.83
	Linear fluid (dielectric constant: 78.4, screening length: 5.74355 Bohr) occupying 0.763305 of unit cell:	Completed after 0 iterations at t[s]:   1579.64
	FillingsUpdate:  mu: -0.244750400  nElectrons: 261.681036
	SubspaceRotationAdjust: set factor to 0.965
ElecMinimize: Iter:  44  G: -943.307918117261238  |grad|_K:  3.655e-07  alpha:  1.352e-01  linmin: -6.841e-04  t[s]:   1590.40
	Linear fluid (dielectric constant: 78.4, screening length: 5.74355 Bohr) occupying 0.763308 of unit cell:	Completed after 3 iterations at t[s]:   1598.05
	Linear fluid (dielectric constant: 78.4, screening length: 5.74355 Bohr) occupying 0.763307 of unit cell:	Completed after 3 iterations at t[s]:   1606.15
	FillingsUpdate:  mu: -0.244750400  nElectrons: 261.681332
	SubspaceRotationAdjust: set factor to 1.09
ElecMinimize: Iter:  45  G: -943.307918737622572  |grad|_K:  2.893e-07  alpha:  7.849e-02  linmin: -1.772e-04  t[s]:   1613.30
	Linear fluid (dielectric constant: 78.4, screening length: 5.74355 Bohr) occupying 0.763307 of unit cell:	Completed after 1 iterations at t[s]:   1619.24
	Linear fluid (dielectric constant: 78.4, screening length: 5.74355 Bohr) occupying 0.763307 of unit cell:	Completed after 0 iterations at t[s]:   1626.42
	FillingsUpdate:  mu: -0.244750400  nElectrons: 261.679726
	SubspaceRotationAdjust: set factor to 1.26
ElecMinimize: Iter:  46  G: -943.307919370555851  |grad|_K:  2.830e-07  alpha:  1.155e-01  linmin: -4.758e-04  t[s]:   1634.42
	Linear fluid (dielectric constant: 78.4, screening length: 5.74355 Bohr) occupying 0.763306 of unit cell:	Completed after 2 iterations at t[s]:   1642.47
	Linear fluid (dielectric constant: 78.4, screening length: 5.74355 Bohr) occupying 0.763307 of unit cell:	Completed after 2 iterations at t[s]:   1650.29
	FillingsUpdate:  mu: -0.244750400  nElectrons: 261.678184
	SubspaceRotationAdjust: set factor to 1.24
ElecMinimize: Iter:  47  G: -943.307919673450101  |grad|_K:  2.908e-07  alpha:  7.170e-02  linmin: -3.453e-05  t[s]:   1658.61
	Linear fluid (dielectric constant: 78.4, screening length: 5.74355 Bohr) occupying 0.763305 of unit cell:	Completed after 3 iterations at t[s]:   1666.07
	Linear fluid (dielectric constant: 78.4, screening length: 5.74355 Bohr) occupying 0.763306 of unit cell:	Completed after 0 iterations at t[s]:   1674.82
	FillingsUpdate:  mu: -0.244750400  nElectrons: 261.677748
	SubspaceRotationAdjust: set factor to 1.18
ElecMinimize: Iter:  48  G: -943.307919960124991  |grad|_K:  2.731e-07  alpha:  4.635e-02  linmin:  8.439e-04  t[s]:   1684.66
	Linear fluid (dielectric constant: 78.4, screening length: 5.74355 Bohr) occupying 0.763305 of unit cell:	Completed after 0 iterations at t[s]:   1692.19
	Linear fluid (dielectric constant: 78.4, screening length: 5.74355 Bohr) occupying 0.763304 of unit cell:	Completed after 2 iterations at t[s]:   1701.78
	FillingsUpdate:  mu: -0.244750400  nElectrons: 261.677193
	SubspaceRotationAdjust: set factor to 0.977
ElecMinimize: Iter:  49  G: -943.307920086476770  |grad|_K:  2.513e-07  alpha:  7.611e-02  linmin:  5.526e-04  t[s]:   1713.47
	Linear fluid (dielectric constant: 78.4, screening length: 5.74355 Bohr) occupying 0.763303 of unit cell:	Completed after 0 iterations at t[s]:   1721.37
	Linear fluid (dielectric constant: 78.4, screening length: 5.74355 Bohr) occupying 0.763302 of unit cell:	Completed after 2 iterations at t[s]:   1731.14
	FillingsUpdate:  mu: -0.244750400  nElectrons: 261.678418
	SubspaceRotationAdjust: set factor to 1.47
ElecMinimize: Iter:  50  G: -943.307920293501184  |grad|_K:  1.969e-07  alpha:  9.571e-02  linmin:  4.428e-04  t[s]:   1739.88
	Linear fluid (dielectric constant: 78.4, screening length: 5.74355 Bohr) occupying 0.763301 of unit cell:	Completed after 3 iterations at t[s]:   1745.44
	Linear fluid (dielectric constant: 78.4, screening length: 5.74355 Bohr) occupying 0.763301 of unit cell:	Completed after 0 iterations at t[s]:   1752.76
	FillingsUpdate:  mu: -0.244750400  nElectrons: 261.679772
	SubspaceRotationAdjust: set factor to 1.56
ElecMinimize: Iter:  51  G: -943.307920428424268  |grad|_K:  1.913e-07  alpha:  7.266e-02  linmin:  1.303e-04  t[s]:   1761.60
	Linear fluid (dielectric constant: 78.4, screening length: 5.74355 Bohr) occupying 0.763301 of unit cell:	Completed after 2 iterations at t[s]:   1767.84
	Linear fluid (dielectric constant: 78.4, screening length: 5.74355 Bohr) occupying 0.763301 of unit cell:	Completed after 0 iterations at t[s]:   1775.38
	FillingsUpdate:  mu: -0.244750400  nElectrons: 261.681072
	SubspaceRotationAdjust: set factor to 1.24
ElecMinimize: Iter:  52  G: -943.307920548509628  |grad|_K:  1.784e-07  alpha:  5.829e-02  linmin:  1.283e-04  t[s]:   1782.83
	Linear fluid (dielectric constant: 78.4, screening length: 5.74355 Bohr) occupying 0.763300 of unit cell:	Completed after 0 iterations at t[s]:   1787.71
	Linear fluid (dielectric constant: 78.4, screening length: 5.74355 Bohr) occupying 0.763300 of unit cell:	Completed after 2 iterations at t[s]:   1795.35
	FillingsUpdate:  mu: -0.244750400  nElectrons: 261.682242
	SubspaceRotationAdjust: set factor to 0.914
ElecMinimize: Iter:  53  G: -943.307920614401382  |grad|_K:  1.864e-07  alpha:  1.037e-01  linmin:  1.040e-03  t[s]:   1804.63
	Linear fluid (dielectric constant: 78.4, screening length: 5.74355 Bohr) occupying 0.763299 of unit cell:	Completed after 3 iterations at t[s]:   1810.57
	Linear fluid (dielectric constant: 78.4, screening length: 5.74355 Bohr) occupying 0.763300 of unit cell:	Completed after 0 iterations at t[s]:   1817.92
	FillingsUpdate:  mu: -0.244750400  nElectrons: 261.681790
	SubspaceRotationAdjust: set factor to 0.832
ElecMinimize: Iter:  54  G: -943.307920697292161  |grad|_K:  1.583e-07  alpha:  3.621e-02  linmin:  7.744e-04  t[s]:   1828.41
	Linear fluid (dielectric constant: 78.4, screening length: 5.74355 Bohr) occupying 0.763300 of unit cell:	Completed after 0 iterations at t[s]:   1839.18
	Linear fluid (dielectric constant: 78.4, screening length: 5.74355 Bohr) occupying 0.763299 of unit cell:	Completed after 2 iterations at t[s]:   1851.95
	FillingsUpdate:  mu: -0.244750400  nElectrons: 261.680717
	SubspaceRotationAdjust: set factor to 0.85
ElecMinimize: Iter:  55  G: -943.307920714636566  |grad|_K:  1.383e-07  alpha:  1.061e-01  linmin:  4.444e-04  t[s]:   1867.61
	Linear fluid (dielectric constant: 78.4, screening length: 5.74355 Bohr) occupying 0.763299 of unit cell:	Completed after 2 iterations at t[s]:   1878.44
	Linear fluid (dielectric constant: 78.4, screening length: 5.74355 Bohr) occupying 0.763299 of unit cell:	Completed after 0 iterations at t[s]:   1891.48
	FillingsUpdate:  mu: -0.244750400  nElectrons: 261.679570
	SubspaceRotationAdjust: set factor to 0.857
ElecMinimize: Iter:  56  G: -943.307920782690758  |grad|_K:  1.200e-07  alpha:  7.700e-02  linmin:  1.231e-04  t[s]:   1908.14
	Linear fluid (dielectric constant: 78.4, screening length: 5.74355 Bohr) occupying 0.763299 of unit cell:	Completed after 0 iterations at t[s]:   1920.19
	Linear fluid (dielectric constant: 78.4, screening length: 5.74355 Bohr) occupying 0.763299 of unit cell:	Completed after 0 iterations at t[s]:   1934.58
	FillingsUpdate:  mu: -0.244750400  nElectrons: 261.678834
	SubspaceRotationAdjust: set factor to 1.12
ElecMinimize: Iter:  57  G: -943.307920885790054  |grad|_K:  9.881e-08  alpha:  1.125e-01  linmin: -5.052e-04  t[s]:   1950.68
	Linear fluid (dielectric constant: 78.4, screening length: 5.74355 Bohr) occupying 0.763299 of unit cell:	Completed after 3 iterations at t[s]:   1962.04
	Linear fluid (dielectric constant: 78.4, screening length: 5.74355 Bohr) occupying 0.763299 of unit cell:	Completed after 0 iterations at t[s]:   1975.46
	FillingsUpdate:  mu: -0.244750400  nElectrons: 261.678881
	SubspaceRotationAdjust: set factor to 0.804
ElecMinimize: Iter:  58  G: -943.307920892808397  |grad|_K:  1.373e-07  alpha:  5.556e-02  linmin: -1.445e-04  t[s]:   1990.91
	Linear fluid (dielectric constant: 78.4, screening length: 5.74355 Bohr) occupying 0.763300 of unit cell:	Completed after 0 iterations at t[s]:   2002.01
	Linear fluid (dielectric constant: 78.4, screening length: 5.74355 Bohr) occupying 0.763300 of unit cell:	Completed after 0 iterations at t[s]:   2016.72
	FillingsUpdate:  mu: -0.244750400  nElectrons: 261.679930
	SubspaceRotationAdjust: set factor to 0.675
ElecMinimize: Iter:  59  G: -943.307920977939830  |grad|_K:  1.230e-07  alpha:  7.051e-02  linmin: -7.163e-07  t[s]:   2033.55
	Linear fluid (dielectric constant: 78.4, screening length: 5.74355 Bohr) occupying 0.763300 of unit cell:	Completed after 2 iterations at t[s]:   2045.71
	Linear fluid (dielectric constant: 78.4, screening length: 5.74355 Bohr) occupying 0.763300 of unit cell:	Completed after 2 iterations at t[s]:   2060.11
ElecMinimize: 	Step increased G by 6.080188e-08, reducing alpha to 1.156638e-03.
	Linear fluid (dielectric constant: 78.4, screening length: 5.74355 Bohr) occupying 0.763300 of unit cell:	Completed after 0 iterations at t[s]:   2084.13
ElecMinimize: 	Step increased G by 4.329502e-08, reducing alpha to 1.156638e-04.
	Linear fluid (dielectric constant: 78.4, screening length: 5.74355 Bohr) occupying 0.763300 of unit cell:	Completed after 0 iterations at t[s]:   2098.26
ElecMinimize: 	Step increased G by 4.166566e-08, reducing alpha to 1.156638e-05.
ElecMinimize: 	Step failed to reduce G after 3 attempts. Quitting step.
ElecMinimize: 	Undoing step.
	Linear fluid (dielectric constant: 78.4, screening length: 5.74355 Bohr) occupying 0.763300 of unit cell:	Completed after 0 iterations at t[s]:   2113.23
ElecMinimize: 	Step failed: resetting search direction.
	FillingsUpdate:  mu: -0.244750400  nElectrons: 261.679932
	SubspaceRotationAdjust: set factor to 0.527
ElecMinimize: Iter:  60  G: -943.307920936291794  |grad|_K:  1.355e-07  alpha:  1.157e-05
	Linear fluid (dielectric constant: 78.4, screening length: 5.74355 Bohr) occupying 0.763300 of unit cell:	Completed after 2 iterations at t[s]:   2127.29
	Linear fluid (dielectric constant: 78.4, screening length: 5.74355 Bohr) occupying 0.763300 of unit cell:	Completed after 0 iterations at t[s]:   2133.81
	FillingsUpdate:  mu: -0.244750400  nElectrons: 261.679516
	SubspaceRotationAdjust: set factor to 0.388
ElecMinimize: Iter:  61  G: -943.307920987390730  |grad|_K:  8.607e-08  alpha:  5.360e-02  linmin: -1.174e-03  t[s]:   2142.71
	Linear fluid (dielectric constant: 78.4, screening length: 5.74355 Bohr) occupying 0.763300 of unit cell:	Completed after 0 iterations at t[s]:   2149.82
ElecMinimize: 	Predicted alpha/alphaT>3.000000, increasing alphaT to 1.607978e-01.
	Linear fluid (dielectric constant: 78.4, screening length: 5.74355 Bohr) occupying 0.763300 of unit cell:	Completed after 0 iterations at t[s]:   2160.45
	Linear fluid (dielectric constant: 78.4, screening length: 5.74355 Bohr) occupying 0.763300 of unit cell:	Completed after 2 iterations at t[s]:   2172.96
	FillingsUpdate:  mu: -0.244750400  nElectrons: 261.679594
	SubspaceRotationAdjust: set factor to 0.409
ElecMinimize: Iter:  62  G: -943.307921055807924  |grad|_K:  7.864e-08  alpha:  3.147e-01  linmin:  3.485e-03  t[s]:   2189.81
	Linear fluid (dielectric constant: 78.4, screening length: 5.74355 Bohr) occupying 0.763300 of unit cell:	Completed after 2 iterations at t[s]:   2202.79
	Linear fluid (dielectric constant: 78.4, screening length: 5.74355 Bohr) occupying 0.763300 of unit cell:	Completed after 0 iterations at t[s]:   2218.09
	FillingsUpdate:  mu: -0.244750400  nElectrons: 261.679946
	SubspaceRotationAdjust: set factor to 0.439
ElecMinimize: Iter:  63  G: -943.307921073444163  |grad|_K:  8.218e-08  alpha:  1.277e-01  linmin:  6.594e-04  t[s]:   2233.73
	Linear fluid (dielectric constant: 78.4, screening length: 5.74355 Bohr) occupying 0.763300 of unit cell:	Completed after 0 iterations at t[s]:   2244.25
	Linear fluid (dielectric constant: 78.4, screening length: 5.74355 Bohr) occupying 0.763300 of unit cell:	Completed after 0 iterations at t[s]:   2256.49
	FillingsUpdate:  mu: -0.244750400  nElectrons: 261.680334
	SubspaceRotationAdjust: set factor to 0.435
ElecMinimize: Iter:  64  G: -943.307921132666024  |grad|_K:  7.718e-08  alpha:  1.670e-01  linmin: -1.569e-06  t[s]:   2271.71
	Linear fluid (dielectric constant: 78.4, screening length: 5.74355 Bohr) occupying 0.763300 of unit cell:	Completed after 3 iterations at t[s]:   2284.20
	Linear fluid (dielectric constant: 78.4, screening length: 5.74355 Bohr) occupying 0.763300 of unit cell:	Completed after 0 iterations at t[s]:   2297.72
	FillingsUpdate:  mu: -0.244750400  nElectrons: 261.680379
	SubspaceRotationAdjust: set factor to 0.345
ElecMinimize: Iter:  65  G: -943.307921147384150  |grad|_K:  1.532e-07  alpha:  3.922e-02  linmin:  2.377e-03  t[s]:   2312.82
ElecMinimize: 	Bad step direction: g.d > 0.
ElecMinimize: 	Undoing step.
	Linear fluid (dielectric constant: 78.4, screening length: 5.74355 Bohr) occupying 0.763300 of unit cell:	Completed after 0 iterations at t[s]:   2324.22
ElecMinimize: 	Step failed: resetting search direction.
	FillingsUpdate:  mu: -0.244750400  nElectrons: 261.680379
	SubspaceRotationAdjust: set factor to 0.3
ElecMinimize: Iter:  66  G: -943.307921147384491  |grad|_K:  1.428e-07  alpha:  0.000e+00
	Linear fluid (dielectric constant: 78.4, screening length: 5.74355 Bohr) occupying 0.763300 of unit cell:	Completed after 1 iterations at t[s]:   2349.72
	Linear fluid (dielectric constant: 78.4, screening length: 5.74355 Bohr) occupying 0.763300 of unit cell:	Completed after 0 iterations at t[s]:   2362.52
ElecMinimize: 	Step increased G by 2.550132e-08, reducing alpha to 1.730054e-03.
	Linear fluid (dielectric constant: 78.4, screening length: 5.74355 Bohr) occupying 0.763300 of unit cell:	Completed after 0 iterations at t[s]:   2388.03
ElecMinimize: 	Step increased G by 3.535558e-08, reducing alpha to 1.730054e-04.
	Linear fluid (dielectric constant: 78.4, screening length: 5.74355 Bohr) occupying 0.763300 of unit cell:	Completed after 0 iterations at t[s]:   2413.36
ElecMinimize: 	Step increased G by 3.638399e-08, reducing alpha to 1.730054e-05.
ElecMinimize: 	Step failed to reduce G after 3 attempts. Quitting step.
ElecMinimize: 	Undoing step.
	Linear fluid (dielectric constant: 78.4, screening length: 5.74355 Bohr) occupying 0.763300 of unit cell:	Completed after 0 iterations at t[s]:   2428.46
ElecMinimize: 	Step failed along negative gradient direction.
ElecMinimize: Probably at roundoff error limit. (Stopping)
Setting wave functions to eigenvectors of Hamiltonian

# Ionic positions in lattice coordinates:
ion Li   0.333999930863447   0.334499685284467   0.497707429953407 0
ion Li   0.831590507058168   0.334283409219119   0.498484362126442 0
ion Li   0.334657564649104   0.831043976612993   0.498168497957380 0
ion Li   0.833366377293396   0.833287519990771   0.498712247494613 0
ion Ni   0.167135976856994   0.165767513206287   0.498654374917615 0
ion Ni   0.666534886220947   0.167190422763291   0.498662391815860 0
ion Ni   0.166943772957093   0.666381528862130   0.498731424727690 0
ion Ni   0.666517065896414   0.666723579034103   0.498518424186501 0
ion P  -0.002342977355621   0.502378758286854   0.438589846621640 0
ion P  -0.000189624245169   0.502184915448700   0.558273644453774 0
ion P   0.500083632504714   0.499917077183165   0.498207448132237 0
ion P   0.501935166328370  -0.002171216278450   0.557911674867947 0
ion P   0.000682700565857  -0.002762834879629   0.439296578232414 0
ion P  -0.001909543073239  -0.000543082785519   0.558841968237891 0
ion P   0.502467999266034  -0.000229191041177   0.438356183112401 0
ion S   0.016982310227966   0.324600913339834   0.585667651463139 0
ion S   0.323280345799697   0.159081954421856   0.584422850660488 0
ion S   0.018464719410322   0.158012608141325   0.412290887680008 0
ion S   0.157534762537651   0.324877574629722   0.410859482608816 0
ion S   0.323998889416408   0.017483417289293   0.410941790247117 0
ion S   0.159467629234941   0.016591802866656   0.585877383133040 0
ion S   0.518614152046680   0.338509916695553   0.568923504477935 0
ion S   0.818643677973330   0.165245102096427   0.583168172121696 0
ion S   0.516576555708803   0.165238413121412   0.413902274909477 0
ion S   0.643301557561234   0.338193333467462   0.427725362879323 0
ion S   0.823586520010163   0.014958794811554   0.411136568962391 0
ion S   0.661406101536330   0.015458208532529   0.586143211461370 0
ion S   0.014399533382588   0.823314301659302   0.586366141600067 0
ion S   0.338819573855083   0.642655902283965   0.569132853429300 0
ion S   0.014379706917836   0.662159232929015   0.411176069496638 0
ion S   0.165796881708685   0.818176037126068   0.414349368142423 0
ion S   0.337782797573434   0.518816368722332   0.427688808588499 0
ion S   0.165956978117009   0.516298546501034   0.582914412918060 0
ion S   0.515663270976261   0.818786474794797   0.582819779456368 0
ion S   0.823304223817907   0.661993615341249   0.585953010614387 0
ion S   0.518676085964042   0.642962763604142   0.427553796478842 0
ion S   0.662131720156915   0.823588010345055   0.410832204901996 0
ion S   0.817223063450072   0.516802660432892   0.414047592985254 0
ion S   0.643225079830126   0.518823033939475   0.568990340945557 0


# Forces in Lattice coordinates:
force Li  -0.021318714894100  -0.022450467229320   0.004328971768349 0
force Li   0.020972226361317  -0.001443662632022   0.001903198224592 0
force Li   0.000318475644549   0.021870048754948   0.003292845640724 0
force Li  -0.000469249786292   0.001828529199640  -0.001378408062431 0
force Ni   0.002555432163033   0.012525160332699  -0.048104755312377 0
force Ni   0.003498791956512   0.017939686283611  -0.047969555962409 0
force Ni   0.015444023682720   0.007575323769880  -0.041005217834737 0
force Ni  -0.015655539863433  -0.012127232875340  -0.042105239079520 0
force P  -0.051123304169199  -0.005343772808662   0.075513904181382 0
force P   0.047431289154059   0.042582947585413  -0.071297355517966 0
force P   0.002455534905300  -0.001204046597808   0.002986365196096 0
force P  -0.009876138439165  -0.033256436678386  -0.061638673504071 0
force P   0.007114038428867  -0.021428413307723   0.057073215301493 0
force P  -0.035207034753043   0.006262247877569  -0.070534016619951 0
force P   0.044478409399473   0.045383966230320   0.069352045084600 0
force S  -0.023478602552568  -0.105910449837033  -0.040184292052453 0
force S  -0.061021077840596   0.021632797728272  -0.020961212401911 0
force S   0.061986486020349   0.088110374942223   0.034770414978357 0
force S   0.027728416120493  -0.086357410262945   0.049019636439631 0
force S  -0.109275836780796  -0.025101788195476   0.048193732336085 0
force S   0.099403160569215   0.083409886515076  -0.041736359229567 0
force S  -0.020036476363678  -0.047901667298029  -0.013533218398902 0
force S  -0.025089052713309   0.000610421611730   0.022502762957702 0
force S   0.028710696558217   0.028498143359899  -0.017256549293481 0
force S   0.014766818146498  -0.034130329018174   0.026276036341904 0
force S  -0.054729960845329  -0.003526340538603  -0.002759662832088 0
force S   0.047424174310540   0.046265897965928   0.000421953788685 0
force S   0.002854855856033  -0.050380709261196   0.005433379268642 0
force S  -0.024968035381185   0.020729480847223  -0.016527866142834 0
force S   0.051959484645171   0.049744577898812  -0.008506855554633 0
force S   0.000586980498758  -0.029066151135956  -0.020122671527748 0
force S  -0.047928525059235  -0.017407630904301   0.020972269139065 0
force S   0.020818169200820   0.019555041371857   0.019081478434418 0
force S   0.001083409252205  -0.026538833345378   0.020385298855659 0
force S  -0.046509094479492  -0.005283401878409   0.005469298869731 0
force S   0.026859273412272   0.046276438604513   0.025368950387162 0
force S   0.002007896577529  -0.052310863157430  -0.005974464496255 0
force S  -0.021531250207103   0.000154991914195  -0.015099394126032 0
force S   0.046542755847069   0.027180688654562  -0.013970596997241 0

# Energy components:
   A_diel =        0.0139174992142845
   Eewald =     4045.3698706208760996
       EH =     4873.0207230908745260
     Eloc =   -10132.7651830436425371
      Enl =      146.2099876972155528
      Exc =     -199.5961568364621144
 Exc_core =       51.8512317736000270
       KE =      208.5578088868776376
  MuShift =        0.0119030846363561
-------------------------------------
     Etot =    -1007.3258972268098432
       TS =        0.0284013293770456
-------------------------------------
        F =    -1007.3542985561869045
      muN =      -64.0463774451872609
-------------------------------------
        G =     -943.3079211109995867

IonicMinimize: Iter:   0  G: -943.307921110999587  |grad|_K:  0.000e+00  t[s]:   2446.05
IonicMinimize: Converged (|grad|_K<1.000000e-04).

#--- Lowdin population analysis ---
# oxidation-state Li -0.479 -0.479 -0.480 -0.473
# oxidation-state Ni -0.375 -0.452 -0.453 -0.453
# oxidation-state P +0.751 +0.750 +0.870 +0.750 +0.750 +0.751 +0.751
# oxidation-state S +0.085 +0.096 +0.094 +0.082 +0.088 +0.088 +0.127 +0.122 +0.123 +0.126 +0.068 +0.069 +0.067 +0.127 +0.069 +0.123 +0.128 +0.124 +0.121 +0.071 +0.126 +0.067 +0.125 +0.128


Dumping 'NbTe2.fillings' ... done
Dumping 'NbTe2.wfns' ... done
Dumping 'NbTe2.fluidState' ... done
Dumping 'NbTe2.eigenvals' ... done
End date and time: Thu Jul 30 18:51:07 2020  (Duration: 0-0:40:53.44)
Done!
