
*************** JDFTx 1.5.0  ***************

Start date and time: Thu Jul 16 16:48:27 2020
Executable jdftx_gpu with command-line: -i Charged.in -o Charged.out
Running on hosts (process indices):  amax (0-5)
Divided in process groups (process indices):  0 (0)  1 (1)  2 (2)  3 (3)  4 (4)  5 (5)
gpuInit: Found compatible cuda device 0 'Tesla K80'
gpuInit: Found compatible cuda device 1 'Tesla K80'
gpuInit: Found compatible cuda device 2 'Tesla K80'
gpuInit: Found compatible cuda device 3 'Tesla K80'
gpuInit: Found compatible cuda device 4 'Tesla K80'
gpuInit: Found compatible cuda device 5 'Tesla K80'
gpuInit: Selected device 0
Resource initialization completed at t[s]:     20.36
Run totals: 6 processes, 24 threads, 6 GPUs


Input parsed successfully to the following command list (including defaults):

basis kpoint-dependent
cache-projectors no
coords-type Lattice
core-overlap-check none
coulomb-interaction Slab 001
coulomb-truncation-embed 0 0 0.5
davidson-band-ratio 1.1
dump End State
dump-name NbTe2.$VAR
elec-cutoff 20 100
elec-eigen-algo Davidson
elec-ex-corr gga-PBE
elec-smearing Gauss 0.0073499
electronic-minimize  \
	dirUpdateScheme      FletcherReeves \
	linminMethod         DirUpdateRecommended \
	nIterations          500 \
	history              15 \
	knormThreshold       0 \
	energyDiffThreshold  1e-08 \
	nEnergyDiff          2 \
	alphaTstart          1 \
	alphaTmin            1e-10 \
	updateTestStepSize   yes \
	alphaTreduceFactor   0.1 \
	alphaTincreaseFactor 3 \
	nAlphaAdjustMax      3 \
	wolfeEnergy          0.0001 \
	wolfeGradient        0.9 \
	fdTest               no
exchange-regularization WignerSeitzTruncated
fluid LinearPCM 298.000000 1.013250
fluid-anion F- 1 MeanFieldLJ \
	epsBulk 1 \
	pMol 0 \
	epsInf 1 \
	Pvap 0 \
	sigmaBulk 0 \
	Rvdw 2.24877 \
	Res 0 \
	tauNuc 343133
fluid-cation Na+ 1 MeanFieldLJ \
	epsBulk 1 \
	pMol 0 \
	epsInf 1 \
	Pvap 0 \
	sigmaBulk 0 \
	Rvdw 2.19208 \
	Res 0 \
	tauNuc 343133
fluid-ex-corr lda-TF lda-PZ
fluid-gummel-loop 10 1.000000e-05
fluid-minimize  \
	dirUpdateScheme      PolakRibiere \
	linminMethod         DirUpdateRecommended \
	nIterations          400 \
	history              15 \
	knormThreshold       1e-11 \
	energyDiffThreshold  0 \
	nEnergyDiff          2 \
	alphaTstart          1 \
	alphaTmin            1e-10 \
	updateTestStepSize   yes \
	alphaTreduceFactor   0.1 \
	alphaTincreaseFactor 3 \
	nAlphaAdjustMax      6 \
	wolfeEnergy          0.0001 \
	wolfeGradient        0.9 \
	fdTest               no
fluid-solvent H2O 55.338 ScalarEOS \
	epsBulk 78.4 \
	pMol 0.92466 \
	epsInf 1.77 \
	Pvap 1.06736e-10 \
	sigmaBulk 4.62e-05 \
	Rvdw 2.61727 \
	Res 1.42 \
	tauNuc 343133 \
	poleEl 15 7 1
forces-output-coords Positions
initial-state NbTe2.$VAR
ion Ta  -0.000000000000000   0.203323878544755   0.478797379915049 0
ion Ta  -0.000000000000000   0.453323859544757   0.521202620084951 0
ion Ta   0.250000000000000   0.203323878544755   0.478797379915049 0
ion Ta   0.250000000000000   0.453323859544757   0.521202620084951 0
ion Ta   0.500000000000000   0.203323878544755   0.478797379915049 0
ion Ta   0.500000000000000   0.453323859544757   0.521202620084951 0
ion Ta   0.749999965999997   0.203323878544755   0.478797379915049 0
ion Ta   0.749999965999997   0.453323859544757   0.521202620084951 0
ion Ta  -0.000000000000000   0.703323896544757   0.478797379915049 0
ion Ta  -0.000000000000000   0.953323896544757   0.521202620084951 0
ion Ta   0.250000000000000   0.703323896544757   0.478797379915049 0
ion Ta   0.250000000000000   0.953323896544757   0.521202620084951 0
ion Ta   0.500000000000000   0.703323896544757   0.478797379915049 0
ion Ta   0.500000000000000   0.953323896544757   0.521202620084951 0
ion Ta   0.749999965999997   0.703323896544757   0.478797379915049 0
ion Ta   0.749999965999997   0.953323896544757   0.521202620084951 0
ion Ni   0.125000000000000   0.105580876668312   0.555878429580333 0
ion Ni   0.125000000000000   0.355570857668311   0.444131563419666 0
ion Ni   0.125000000000000   0.301142573659655   0.555888260031348 0
ion Ni   0.125000000000000   0.051142573659655   0.444121731968655 0
ion Ni   0.374999983000002   0.105580876668312   0.555878429580333 0
ion Ni   0.374999983000002   0.355570857668311   0.444131563419666 0
ion Ni   0.374999983000002   0.301142573659655   0.555888260031348 0
ion Ni   0.374999983000002   0.051142573659655   0.444121731968655 0
ion Ni   0.625000016999998   0.105580876668312   0.555878429580333 0
ion Ni   0.625000016999998   0.355570857668311   0.444131563419666 0
ion Ni   0.625000016999998   0.301142573659655   0.555888260031348 0
ion Ni   0.625000016999998   0.051142573659655   0.444121731968655 0
ion Ni   0.874999983000002   0.105580876668312   0.555878429580333 0
ion Ni   0.874999983000002   0.355570857668311   0.444131563419666 0
ion Ni   0.874999983000002   0.301142573659655   0.555888260031348 0
ion Ni   0.874999983000002   0.051142573659655   0.444121731968655 0
ion Ni   0.125000000000000   0.605580895668310   0.555878429580333 0
ion Ni   0.125000000000000   0.855570931668310   0.444131563419666 0
ion Ni   0.125000000000000   0.801142573659655   0.555888260031348 0
ion Ni   0.125000000000000   0.551142610659655   0.444121731968655 0
ion Ni   0.374999983000002   0.605580895668310   0.555878429580333 0
ion Ni   0.374999983000002   0.855570931668310   0.444131563419666 0
ion Ni   0.374999983000002   0.801142573659655   0.555888260031348 0
ion Ni   0.374999983000002   0.551142610659655   0.444121731968655 0
ion Ni   0.625000016999998   0.605580895668310   0.555878429580333 0
ion Ni   0.625000016999998   0.855570931668310   0.444131563419666 0
ion Ni   0.625000016999998   0.801142573659655   0.555888260031348 0
ion Ni   0.625000016999998   0.551142610659655   0.444121731968655 0
ion Ni   0.874999983000002   0.605580895668310   0.555878429580333 0
ion Ni   0.874999983000002   0.855570931668310   0.444131563419666 0
ion Ni   0.874999983000002   0.801142573659655   0.555888260031348 0
ion Ni   0.874999983000002   0.551142610659655   0.444121731968655 0
ion Te   0.125000000000000   0.453327860417924   0.633567366915353 0
ion Te   0.125000000000000   0.203317860417928   0.366422617084642 0
ion Te   0.000000000000000   0.453264794709362   0.376945767148916 0
ion Te  -0.000000000000000   0.203274795709361   0.623044217851083 0
ion Te   0.374999983000002   0.453327860417924   0.633567366915353 0
ion Te   0.374999983000002   0.203317860417928   0.366422617084642 0
ion Te   0.250000000000000   0.453264794709362   0.376945767148916 0
ion Te   0.250000000000000   0.203274795709361   0.623044217851083 0
ion Te   0.625000016999998   0.453327860417924   0.633567366915353 0
ion Te   0.625000016999998   0.203317860417928   0.366422617084642 0
ion Te   0.500000000000000   0.453264794709362   0.376945767148916 0
ion Te   0.500000000000000   0.203274795709361   0.623044217851083 0
ion Te   0.874999983000002   0.453327860417924   0.633567366915353 0
ion Te   0.874999983000002   0.203317860417928   0.366422617084642 0
ion Te   0.749999965999997   0.453264794709362   0.376945767148916 0
ion Te   0.749999965999997   0.203274795709361   0.623044217851083 0
ion Te   0.125000000000000   0.953327897417924   0.633567366915353 0
ion Te   0.125000000000000   0.703317897417928   0.366422617084642 0
ion Te   0.000000000000000   0.953264831709361   0.376945767148916 0
ion Te   0.000000000000000   0.703274832709361   0.623044217851083 0
ion Te   0.374999983000002   0.953327897417924   0.633567366915353 0
ion Te   0.374999983000002   0.703317897417928   0.366422617084642 0
ion Te   0.250000000000000   0.953264831709361   0.376945767148916 0
ion Te   0.250000000000000   0.703274832709361   0.623044217851083 0
ion Te   0.625000016999998   0.953327897417924   0.633567366915353 0
ion Te   0.625000016999998   0.703317897417928   0.366422617084642 0
ion Te   0.500000000000000   0.953264831709361   0.376945767148916 0
ion Te   0.500000000000000   0.703274832709361   0.623044217851083 0
ion Te   0.874999983000002   0.953327897417924   0.633567366915353 0
ion Te   0.874999983000002   0.703317897417928   0.366422617084642 0
ion Te   0.749999965999997   0.953264831709361   0.376945767148916 0
ion Te   0.749999965999997   0.703274832709361   0.623044217851083 0
ion-species GBRV/$ID_pbe.uspp
ion-width Ecut
ionic-minimize  \
	dirUpdateScheme      L-BFGS \
	linminMethod         DirUpdateRecommended \
	nIterations          0 \
	history              15 \
	knormThreshold       0.0001 \
	energyDiffThreshold  1e-06 \
	nEnergyDiff          2 \
	alphaTstart          1 \
	alphaTmin            1e-10 \
	updateTestStepSize   yes \
	alphaTreduceFactor   0.1 \
	alphaTincreaseFactor 3 \
	nAlphaAdjustMax      3 \
	wolfeEnergy          0.0001 \
	wolfeGradient        0.9 \
	fdTest               no
kpoint   0.000000000000   0.000000000000   0.000000000000  1.00000000000000
kpoint-folding 2 3 1 
latt-move-scale 1 1 1
latt-scale 1 1 1 
lattice Triclinic 26.5157 24.3285 38.7764 90 90 90
lattice-minimize  \
	dirUpdateScheme      L-BFGS \
	linminMethod         DirUpdateRecommended \
	nIterations          0 \
	history              15 \
	knormThreshold       0 \
	energyDiffThreshold  1e-06 \
	nEnergyDiff          2 \
	alphaTstart          1 \
	alphaTmin            1e-10 \
	updateTestStepSize   yes \
	alphaTreduceFactor   0.1 \
	alphaTincreaseFactor 3 \
	nAlphaAdjustMax      3 \
	wolfeEnergy          0.0001 \
	wolfeGradient        0.9 \
	fdTest               no
lcao-params -1 1e-06 0.0073499
pcm-variant CANDLE
spintype no-spin
subspace-rotation-factor 1 yes
symmetries automatic
symmetry-threshold 0.0001
target-mu -0.171252 no




---------- Setting up symmetries ----------

Found 8 point-group symmetries of the bravais lattice
Found 32 space-group symmetries with basis
Applied RMS atom displacement 0.000197409 bohrs to make symmetries exact.

---------- Initializing the Grid ----------
R = 
[    26.5157          0          0  ]
[          0    24.3285          0  ]
[          0          0    38.7764  ]
unit cell volume = 25014.2
G =
[   0.236961          0          0  ]
[          0   0.258264          0  ]
[          0          0   0.162036  ]
Minimum fftbox size, Smin = [  120  112  176  ]
Chosen fftbox size, S = [  120  112  180  ]

---------- Initializing tighter grid for wavefunction operations ----------
R = 
[    26.5157          0          0  ]
[          0    24.3285          0  ]
[          0          0    38.7764  ]
unit cell volume = 25014.2
G =
[   0.236961          0          0  ]
[          0   0.258264          0  ]
[          0          0   0.162036  ]
Minimum fftbox size, Smin = [  108  100  160  ]
Chosen fftbox size, S = [  108  100  160  ]

---------- Exchange Correlation functional ----------
Initalized PBE GGA exchange.
Initalized PBE GGA correlation.

---------- Setting up pseudopotentials ----------
Width of ionic core gaussian charges (only for fluid interactions / plotting) set to 0.397384

Reading pseudopotential file '/home/guoxy/vasp/jdftx-1.5.0/build/pseudopotentials/GBRV/ta_pbe.uspp':
  Title: Ta.  Created by USPP 7.3.6 on 14-9-2013
  Reference state energy: -70.583193.  13 valence electrons in orbitals:
    |500>  occupation: 2  eigenvalue: -2.682396
    |510>  occupation: 6  eigenvalue: -1.447928
    |520>  occupation: 3  eigenvalue: -0.131987
    |600>  occupation: 2  eigenvalue: -0.199982
    |610>  occupation: 0  eigenvalue: -0.051129
  lMax: 3  lLocal: 3  QijEcut: 5
  7 projectors sampled on a log grid with 667 points:
    l: 0  eig: -2.682397  rCut: 1.4
    l: 0  eig: -0.199983  rCut: 1.4
    l: 1  eig: -1.447928  rCut: 1.5
    l: 1  eig: -0.051130  rCut: 1.5
    l: 2  eig: -0.131987  rCut: 1.7
    l: 2  eig: 0.150000  rCut: 1.7
    l: 3  eig: 0.250000  rCut: 2.3
  Partial core density with radius 1.2
  Transforming core density to a uniform radial grid of dG=0.02 with 1254 points.
  Transforming local potential to a uniform radial grid of dG=0.02 with 1254 points.
  Transforming nonlocal projectors to a uniform radial grid of dG=0.02 with 432 points.
  Transforming density augmentations to a uniform radial grid of dG=0.02 with 1254 points.
  Transforming atomic orbitals to a uniform radial grid of dG=0.02 with 432 points.
  Core radius for overlap checks: 2.30 bohrs.

Reading pseudopotential file '/home/guoxy/vasp/jdftx-1.5.0/build/pseudopotentials/GBRV/ni_pbe.uspp':
  Title: Ni.  Created by USPP 7.3.6 on 1-4-15
  Reference state energy: -170.398381.  18 valence electrons in orbitals:
    |300>  occupation: 2  eigenvalue: -4.804705
    |310>  occupation: 6  eigenvalue: -3.347751
    |320>  occupation: 8  eigenvalue: -1.042415
    |400>  occupation: 0  eigenvalue: -0.795539
    |410>  occupation: 0  eigenvalue: -0.551375
  lMax: 2  lLocal: 3  QijEcut: 6.5
  6 projectors sampled on a log grid with 611 points:
    l: 0  eig: -4.804708  rCut: 1.44
    l: 0  eig: -0.795541  rCut: 1.44
    l: 1  eig: -3.347753  rCut: 1.55
    l: 1  eig: 0.500000  rCut: 1.55
    l: 2  eig: -1.042418  rCut: 1.5
    l: 2  eig: -0.450000  rCut: 1.5
  Partial core density with radius 0.65
  Transforming core density to a uniform radial grid of dG=0.02 with 1254 points.
  Transforming local potential to a uniform radial grid of dG=0.02 with 1254 points.
  Transforming nonlocal projectors to a uniform radial grid of dG=0.02 with 432 points.
  Transforming density augmentations to a uniform radial grid of dG=0.02 with 1254 points.
  Transforming atomic orbitals to a uniform radial grid of dG=0.02 with 432 points.
  Core radius for overlap checks: 1.55 bohrs.

Reading pseudopotential file '/home/guoxy/vasp/jdftx-1.5.0/build/pseudopotentials/GBRV/te_pbe.uspp':
  Title: Te.  Created by USPP 7.3.6 on 14-9-2013
  Reference state energy: -13.134220.  6 valence electrons in orbitals:
    |500>  occupation: 2  eigenvalue: -0.555231
    |510>  occupation: 4  eigenvalue: -0.218781
  lMax: 2  lLocal: 2  QijEcut: 5
  5 projectors sampled on a log grid with 723 points:
    l: 0  eig: -0.555229  rCut: 2.1
    l: 0  eig: 1.000000  rCut: 2.1
    l: 1  eig: -0.218780  rCut: 2.1
    l: 1  eig: 1.000000  rCut: 2.1
    l: 2  eig: 1.000000  rCut: 2.6
  Partial core density with radius 1.8
  Transforming core density to a uniform radial grid of dG=0.02 with 1254 points.
  Transforming local potential to a uniform radial grid of dG=0.02 with 1254 points.
  Transforming nonlocal projectors to a uniform radial grid of dG=0.02 with 432 points.
  Transforming density augmentations to a uniform radial grid of dG=0.02 with 1254 points.
  Transforming atomic orbitals to a uniform radial grid of dG=0.02 with 432 points.
  Core radius for overlap checks: 2.60 bohrs.

Initialized 3 species with 80 total atoms.

Folded 1 k-points by 2x3x1 to 6 k-points.

---------- Setting up k-points, bands, fillings ----------
Adding inversion symmetry to k-mesh for non-inversion-symmetric unit cell.
Reduced to 4 k-points under symmetry. 
Computing the number of bands and number of electrons
Reading initial fillings from file NbTe2.fillings.
nElectrons: 976.000000   nBands: 752   nStates: 4

----- Setting up reduced wavefunction bases (one per k-point) -----
average nbasis = 106851.833 , ideal nbasis = 106862.509

---------- Setting up coulomb interaction ----------
Fluid mode embedding: using embedded box, but periodic Coulomb kernel.
(Fluid response is responsible for (approximate) separation between periodic images.)
Setting up double-sized grid for truncated Coulomb potentials:
R = 
[    26.5157          0          0  ]
[          0    24.3285          0  ]
[          0          0    77.5528  ]
unit cell volume = 50028.4
G =
[   0.236961          0          0  ]
[          0   0.258264          0  ]
[          0          0  0.0810181  ]
Chosen fftbox size, S = [  120  112  360  ]
Integer grid location selected as the embedding center:
   Grid: [  0  0  90  ]
   Lattice: [  0  0  0.5  ]
   Cartesian: [  0  0  19.3882  ]
Constructing Wigner-Seitz cell: 6 faces (6 quadrilaterals, 0 hexagons)
Range-separation parameter for embedded mesh potentials due to point charges: 0.593022 bohrs.

Initializing van der Waals corrections
	NOTE: vdW corrections apply only for interactions with fluid.
	Ta:  C6:  815.23 Eh-a0^6  R0: 3.326 a0 (WARNING: beyond Grimme's data set)
	Ni:  C6:  187.33 Eh-a0^6  R0: 2.952 a0
	Te:  C6:  550.54 Eh-a0^6  R0: 3.575 a0

---------- Setting up ewald sum ----------
Optimum gaussian width for ewald sums = 7.081640 bohr.
Real space sum over 405 unit cells with max indices [  4  4  2  ]
Reciprocal space sum over 8325 terms with max indices [  7  7  18  ]

---------- Allocating electronic variables ----------
Initializing wave functions:  reading from 'NbTe2.wfns'
----- createFluidSolver() ----- (Fluid-side solver setup)
   Initializing fluid molecule 'H2O'
     Initializing site 'O'
       Electron density: proportional to exp(-r/0.36935)*erfc((r-0.51523)/0.36823) with norm 6.826
       Charge density: gaussian nuclear width 0.478731 with net site charge 0.826
       Polarizability: cuspless exponential with width 0.32 and norm 3.73
       Hard sphere radius: 2.57003 bohrs
       Positions in reference frame:
         [ +0.000000 +0.000000 +0.000000 ]
     Initializing site 'H'
       Electron density: proportional to exp(-r/0.34641)*erfc((r-0)/0.390882) with norm 0.587
       Charge density: gaussian nuclear width 0.377945 with net site charge -0.413
       Polarizability: cuspless exponential with width 0.39 and norm 3.3
       Positions in reference frame:
         [ +0.000000 -1.441945 +1.122523 ]
         [ +0.000000 +1.441945 +1.122523 ]
     Net charge: 0   dipole magnitude: 0.927204
     Initializing spherical shell mfKernel with radius 2.61727 Bohr
     deltaS corrections:
       site 'O': -7.54299
       site 'H': -6.83917
   Initializing fluid molecule 'Na+'
     Initializing site 'Na'
       Electron density: proportional to exp(-r/0.19682)*erfc((r-0.71491)/0.41314) with norm 8.1383
       Charge density: gaussian nuclear width 0.365347 with net site charge -1
       Hard sphere radius: 1.86327 bohrs
       Positions in reference frame:
         [ +0.000000 +0.000000 +0.000000 ]
     Net charge: -1   dipole magnitude: 0
     Initializing gaussian mfKernel with width: 1.55004 Bohr
     deltaS corrections:
       site 'Na': -22.3555
   Initializing fluid molecule 'F-'
     Initializing site 'F'
       Electron density: proportional to exp(-r/0.38886)*erfc((r-0)/0.438782) with norm 8
       Charge density: gaussian nuclear width 0.374796 with net site charge 1
       Hard sphere radius: 2.39995 bohrs
       Positions in reference frame:
         [ +0.000000 +0.000000 +0.000000 ]
     Net charge: 1   dipole magnitude: 0
     Initializing gaussian mfKernel with width: 1.59012 Bohr
     deltaS corrections:
       site 'F': -9.04335

Correction to mu due to finite nuclear width = -0.0193568
   Cavity determined by nc: 0.00142 and sigma: 0.707107
   Nonlocal vdW cavity from gaussian model electron density with norm = 8 and sigma = 0.993594 bohr
   Charge asymmetry in cavity with sensitivity pCavity = 36.5 e-bohr/Eh
   Electrostatic cavity expanded by eta = 1.46 bohrs
   Weighted density cavitation model constrained by Nbulk: 0.0049383 bohr^-3, Pvap: 3.14029 kPa, Rvdw: 2.61727 bohr and sigmaBulk: 4.62e-05 Eh/bohr^2 at T: 298 K.
   Weighted density dispersion model using vdW pair potentials with single solvent site with sqrtC6eff: 0.77 SI.
Reading fluid state from 'NbTe2.fluidState'


---- Citations for features of the code used in this run ----

   Software package:
      R. Sundararaman, K. Letchworth-Weaver, K.A. Schwarz, D. Gunceler, Y. Ozhabes and T.A. Arias, 'JDFTx: software for joint density-functional theory', SoftwareX 6, 278 (2017)

   gga-PBE exchange-correlation functional:
      J.P. Perdew, K. Burke and M. Ernzerhof, Phys. Rev. Lett. 77, 3865 (1996)

   Pseudopotentials:
      KF Garrity, JW Bennett, KM Rabe and D Vanderbilt, Comput. Mater. Sci. 81, 446 (2014)

   Truncated Coulomb potentials:
      R. Sundararaman and T.A. Arias, Phys. Rev. B 87, 165122 (2013)

   Van der Waals correction pair-potentials:
      S. Grimme, J. Comput. Chem. 27, 1787 (2006)

   Charge-asymmetric nonlocally-determined local-electric (CANDLE) solvation model:
      R. Sundararaman and W.A. Goddard III, J. Chem. Phys. 142, 064107 (2015)

   Total energy minimization with Auxiliary Hamiltonian:
      C. Freysoldt, S. Boeck, and J. Neugebauer, Phys. Rev. B 79, 241103(R) (2009)

   Grand-canonical (fixed-potential) DFT:
      R. Sundararaman, W. A. Goddard III and T. A. Arias, J. Chem. Phys. 146, 114104 (2017)

This list may not be complete. Please suggest additional citations or
report any other bugs at https://github.com/shankar1729/jdftx/issues

Initialization completed successfully at t[s]:     46.28

Shifting auxilliary hamiltonian by -0.026420 to set nElectrons=976.000000
	Linear fluid (dielectric constant: 78.4, screening length: 5.74355 Bohr) occupying 0.719478 of unit cell:	Completed after 2 iterations at t[s]:     53.57

-------- Electronic minimization -----------
	Linear fluid (dielectric constant: 78.4, screening length: 5.74355 Bohr) occupying 0.719478 of unit cell:	Completed after 0 iterations at t[s]:     61.27
	FillingsUpdate:  mu: -0.171251800  nElectrons: 976.000000
ElecMinimize: Iter:   0  G: -6517.931703802693846  |grad|_K:  3.446e-05  alpha:  1.000e+00
	Linear fluid (dielectric constant: 78.4, screening length: 5.74355 Bohr) occupying 0.721553 of unit cell:	Completed after 19 iterations at t[s]:    102.26
	Linear fluid (dielectric constant: 78.4, screening length: 5.74355 Bohr) occupying 0.719493 of unit cell:	Completed after 18 iterations at t[s]:    119.57
	FillingsUpdate:  mu: -0.171251800  nElectrons: 975.690741
	SubspaceRotationAdjust: set factor to 0.508
ElecMinimize: Iter:   1  G: -6517.937221905090155  |grad|_K:  1.396e-05  alpha:  1.064e-02  linmin: -2.366e-02  t[s]:    137.42
	Linear fluid (dielectric constant: 78.4, screening length: 5.74355 Bohr) occupying 0.719523 of unit cell:	Completed after 12 iterations at t[s]:    156.75
	Linear fluid (dielectric constant: 78.4, screening length: 5.74355 Bohr) occupying 0.719542 of unit cell:	Completed after 12 iterations at t[s]:    173.75
	FillingsUpdate:  mu: -0.171251800  nElectrons: 975.429578
	SubspaceRotationAdjust: set factor to 0.28
ElecMinimize: Iter:   2  G: -6517.938694048594698  |grad|_K:  9.009e-06  alpha:  1.734e-02  linmin:  7.763e-05  t[s]:    191.14
	Linear fluid (dielectric constant: 78.4, screening length: 5.74355 Bohr) occupying 0.719589 of unit cell:	Completed after 9 iterations at t[s]:    209.99
ElecMinimize: 	Predicted alpha/alphaT>3.000000, increasing alphaT to 5.202901e-02.
	Linear fluid (dielectric constant: 78.4, screening length: 5.74355 Bohr) occupying 0.719683 of unit cell:	Completed after 10 iterations at t[s]:    226.60
	Linear fluid (dielectric constant: 78.4, screening length: 5.74355 Bohr) occupying 0.719831 of unit cell:	Completed after 11 iterations at t[s]:    243.30
	FillingsUpdate:  mu: -0.171251800  nElectrons: 974.962381
	SubspaceRotationAdjust: set factor to 0.146
ElecMinimize: Iter:   3  G: -6517.941456042935897  |grad|_K:  1.261e-05  alpha:  1.068e-01  linmin:  1.473e-04  t[s]:    261.52
	Linear fluid (dielectric constant: 78.4, screening length: 5.74355 Bohr) occupying 0.720482 of unit cell:	Completed after 12 iterations at t[s]:    284.20
	Linear fluid (dielectric constant: 78.4, screening length: 5.74355 Bohr) occupying 0.720244 of unit cell:	Completed after 8 iterations at t[s]:    302.22
	FillingsUpdate:  mu: -0.171251800  nElectrons: 974.702945
	SubspaceRotationAdjust: set factor to 0.137
ElecMinimize: Iter:   4  G: -6517.944869920472229  |grad|_K:  7.051e-06  alpha:  6.742e-02  linmin:  1.292e-06  t[s]:    323.12
	Linear fluid (dielectric constant: 78.4, screening length: 5.74355 Bohr) occupying 0.720401 of unit cell:	Completed after 11 iterations at t[s]:    346.29
	Linear fluid (dielectric constant: 78.4, screening length: 5.74355 Bohr) occupying 0.720462 of unit cell:	Completed after 10 iterations at t[s]:    365.34
	FillingsUpdate:  mu: -0.171251800  nElectrons: 974.728552
	SubspaceRotationAdjust: set factor to 0.138
ElecMinimize: Iter:   5  G: -6517.946380470420081  |grad|_K:  4.985e-06  alpha:  9.395e-02  linmin: -2.847e-05  t[s]:    386.70
	Linear fluid (dielectric constant: 78.4, screening length: 5.74355 Bohr) occupying 0.720607 of unit cell:	Completed after 11 iterations at t[s]:    411.67
	Linear fluid (dielectric constant: 78.4, screening length: 5.74355 Bohr) occupying 0.720640 of unit cell:	Completed after 8 iterations at t[s]:    430.26
	FillingsUpdate:  mu: -0.171251800  nElectrons: 974.723282
	SubspaceRotationAdjust: set factor to 0.114
	SubspaceRotationAdjust: resetting CG because factor has changed by 0.113637
	Linear fluid (dielectric constant: 78.4, screening length: 5.74355 Bohr) occupying 0.720640 of unit cell:	Completed after 0 iterations at t[s]:    457.30
ElecMinimize: 	State modified externally: resetting search direction.
ElecMinimize: Iter:   6  G: -6517.947308311159759  |grad|_K:  3.972e-06  alpha:  1.150e-01
	Linear fluid (dielectric constant: 78.4, screening length: 5.74355 Bohr) occupying 0.720681 of unit cell:	Completed after 10 iterations at t[s]:    504.16
	Linear fluid (dielectric constant: 78.4, screening length: 5.74355 Bohr) occupying 0.720730 of unit cell:	Completed after 10 iterations at t[s]:    522.93
	FillingsUpdate:  mu: -0.171251800  nElectrons: 974.579402
	SubspaceRotationAdjust: set factor to 0.0753
ElecMinimize: Iter:   7  G: -6517.948604223786788  |grad|_K:  3.315e-06  alpha:  2.536e-01  linmin: -2.110e-04  t[s]:    543.94
	Linear fluid (dielectric constant: 78.4, screening length: 5.74355 Bohr) occupying 0.720878 of unit cell:	Completed after 11 iterations at t[s]:    567.40
	Linear fluid (dielectric constant: 78.4, screening length: 5.74355 Bohr) occupying 0.720957 of unit cell:	Completed after 10 iterations at t[s]:    586.21
	FillingsUpdate:  mu: -0.171251800  nElectrons: 974.707705
	SubspaceRotationAdjust: set factor to 0.0829
ElecMinimize: Iter:   8  G: -6517.949994872942625  |grad|_K:  2.428e-06  alpha:  3.895e-01  linmin: -3.390e-05  t[s]:    606.72
	Linear fluid (dielectric constant: 78.4, screening length: 5.74355 Bohr) occupying 0.721162 of unit cell:	Completed after 10 iterations at t[s]:    631.86
	Linear fluid (dielectric constant: 78.4, screening length: 5.74355 Bohr) occupying 0.721076 of unit cell:	Completed after 8 iterations at t[s]:    650.22
	FillingsUpdate:  mu: -0.171251800  nElectrons: 974.735600
	SubspaceRotationAdjust: set factor to 0.105
ElecMinimize: Iter:   9  G: -6517.950425245230690  |grad|_K:  1.496e-06  alpha:  2.256e-01  linmin:  8.079e-06  t[s]:    671.12
	Linear fluid (dielectric constant: 78.4, screening length: 5.74355 Bohr) occupying 0.721166 of unit cell:	Completed after 3 iterations at t[s]:    697.52
ElecMinimize: 	Predicted alpha/alphaT>3.000000, increasing alphaT to 6.767458e-01.
	Linear fluid (dielectric constant: 78.4, screening length: 5.74355 Bohr) occupying 0.721344 of unit cell:	Completed after 6 iterations at t[s]:    714.81
	Linear fluid (dielectric constant: 78.4, screening length: 5.74355 Bohr) occupying 0.721425 of unit cell:	Completed after 2 iterations at t[s]:    732.71
	FillingsUpdate:  mu: -0.171251800  nElectrons: 974.671881
	SubspaceRotationAdjust: set factor to 0.134
ElecMinimize: Iter:  10  G: -6517.951061233715336  |grad|_K:  1.422e-06  alpha:  8.804e-01  linmin: -2.248e-05  t[s]:    753.48
	Linear fluid (dielectric constant: 78.4, screening length: 5.74355 Bohr) occupying 0.721862 of unit cell:	Completed after 9 iterations at t[s]:    778.99
	Linear fluid (dielectric constant: 78.4, screening length: 5.74355 Bohr) occupying 0.721827 of unit cell:	Completed after 2 iterations at t[s]:    796.22
	FillingsUpdate:  mu: -0.171251800  nElectrons: 974.577399
	SubspaceRotationAdjust: set factor to 0.15
ElecMinimize: Iter:  11  G: -6517.951590869812208  |grad|_K:  2.000e-06  alpha:  8.098e-01  linmin: -5.588e-06  t[s]:    816.97
	Linear fluid (dielectric constant: 78.4, screening length: 5.74355 Bohr) occupying 0.722656 of unit cell:	Completed after 12 iterations at t[s]:    841.48
	Linear fluid (dielectric constant: 78.4, screening length: 5.74355 Bohr) occupying 0.722136 of unit cell:	Completed after 12 iterations at t[s]:    860.68
	FillingsUpdate:  mu: -0.171251800  nElectrons: 974.595011
	SubspaceRotationAdjust: set factor to 0.121
ElecMinimize: Iter:  12  G: -6517.951964456296992  |grad|_K:  1.908e-06  alpha:  2.944e-01  linmin:  2.734e-05  t[s]:    881.21
	Linear fluid (dielectric constant: 78.4, screening length: 5.74355 Bohr) occupying 0.722418 of unit cell:	Completed after 11 iterations at t[s]:    906.88
	Linear fluid (dielectric constant: 78.4, screening length: 5.74355 Bohr) occupying 0.722456 of unit cell:	Completed after 3 iterations at t[s]:    924.63
	FillingsUpdate:  mu: -0.171251800  nElectrons: 974.478126
	SubspaceRotationAdjust: set factor to 0.104
ElecMinimize: Iter:  13  G: -6517.952354564806228  |grad|_K:  1.820e-06  alpha:  3.348e-01  linmin: -1.472e-05  t[s]:    946.17
	Linear fluid (dielectric constant: 78.4, screening length: 5.74355 Bohr) occupying 0.722732 of unit cell:	Completed after 6 iterations at t[s]:    968.74
	Linear fluid (dielectric constant: 78.4, screening length: 5.74355 Bohr) occupying 0.722686 of unit cell:	Completed after 3 iterations at t[s]:    986.75
	FillingsUpdate:  mu: -0.171251800  nElectrons: 974.428638
	SubspaceRotationAdjust: set factor to 0.127
ElecMinimize: Iter:  14  G: -6517.952652787577790  |grad|_K:  1.175e-06  alpha:  2.776e-01  linmin: -8.494e-06  t[s]:   1007.36
	Linear fluid (dielectric constant: 78.4, screening length: 5.74355 Bohr) occupying 0.722774 of unit cell:	Completed after 8 iterations at t[s]:   1031.18
	Linear fluid (dielectric constant: 78.4, screening length: 5.74355 Bohr) occupying 0.722843 of unit cell:	Completed after 7 iterations at t[s]:   1049.62
	FillingsUpdate:  mu: -0.171251800  nElectrons: 974.419976
	SubspaceRotationAdjust: set factor to 0.116
ElecMinimize: Iter:  15  G: -6517.952873362246464  |grad|_K:  1.106e-06  alpha:  4.967e-01  linmin:  2.540e-05  t[s]:   1070.19
	Linear fluid (dielectric constant: 78.4, screening length: 5.74355 Bohr) occupying 0.722983 of unit cell:	Completed after 12 iterations at t[s]:   1096.05
	Linear fluid (dielectric constant: 78.4, screening length: 5.74355 Bohr) occupying 0.722914 of unit cell:	Completed after 9 iterations at t[s]:   1114.56
	FillingsUpdate:  mu: -0.171251800  nElectrons: 974.371644
	SubspaceRotationAdjust: set factor to 0.0908
ElecMinimize: Iter:  16  G: -6517.952971974646971  |grad|_K:  8.600e-07  alpha:  2.520e-01  linmin: -9.104e-07  t[s]:   1135.07
	Linear fluid (dielectric constant: 78.4, screening length: 5.74355 Bohr) occupying 0.722962 of unit cell:	Completed after 7 iterations at t[s]:   1158.21
	Linear fluid (dielectric constant: 78.4, screening length: 5.74355 Bohr) occupying 0.722969 of unit cell:	Completed after 2 iterations at t[s]:   1175.97
	FillingsUpdate:  mu: -0.171251800  nElectrons: 974.367958
	SubspaceRotationAdjust: set factor to 0.0994
ElecMinimize: Iter:  17  G: -6517.953040437460913  |grad|_K:  6.572e-07  alpha:  2.867e-01  linmin: -1.957e-05  t[s]:   1196.80
	Linear fluid (dielectric constant: 78.4, screening length: 5.74355 Bohr) occupying 0.723006 of unit cell:	Completed after 7 iterations at t[s]:   1222.31
	Linear fluid (dielectric constant: 78.4, screening length: 5.74355 Bohr) occupying 0.723008 of unit cell:	Completed after 0 iterations at t[s]:   1239.19
	FillingsUpdate:  mu: -0.171251800  nElectrons: 974.367833
	SubspaceRotationAdjust: set factor to 0.101
ElecMinimize: Iter:  18  G: -6517.953082572547828  |grad|_K:  4.261e-07  alpha:  2.996e-01  linmin: -2.950e-05  t[s]:   1259.97
	Linear fluid (dielectric constant: 78.4, screening length: 5.74355 Bohr) occupying 0.723030 of unit cell:	Completed after 6 iterations at t[s]:   1286.28
	Linear fluid (dielectric constant: 78.4, screening length: 5.74355 Bohr) occupying 0.723034 of unit cell:	Completed after 1 iterations at t[s]:   1303.84
	FillingsUpdate:  mu: -0.171251800  nElectrons: 974.355473
	SubspaceRotationAdjust: set factor to 0.0994
ElecMinimize: Iter:  19  G: -6517.953103490548528  |grad|_K:  3.866e-07  alpha:  3.529e-01  linmin: -5.053e-05  t[s]:   1325.07
	Linear fluid (dielectric constant: 78.4, screening length: 5.74355 Bohr) occupying 0.723060 of unit cell:	Completed after 3 iterations at t[s]:   1347.58
	Linear fluid (dielectric constant: 78.4, screening length: 5.74355 Bohr) occupying 0.723052 of unit cell:	Completed after 1 iterations at t[s]:   1365.40
	FillingsUpdate:  mu: -0.171251800  nElectrons: 974.353934
	SubspaceRotationAdjust: set factor to 0.118
ElecMinimize: Iter:  20  G: -6517.953116123127074  |grad|_K:  2.415e-07  alpha:  2.523e-01  linmin:  1.759e-05  t[s]:   1385.80
	Linear fluid (dielectric constant: 78.4, screening length: 5.74355 Bohr) occupying 0.723061 of unit cell:	Completed after 2 iterations at t[s]:   1410.34
	Linear fluid (dielectric constant: 78.4, screening length: 5.74355 Bohr) occupying 0.723064 of unit cell:	Completed after 2 iterations at t[s]:   1427.84
	FillingsUpdate:  mu: -0.171251800  nElectrons: 974.356066
	SubspaceRotationAdjust: set factor to 0.127
ElecMinimize: Iter:  21  G: -6517.953122841502591  |grad|_K:  2.220e-07  alpha:  3.626e-01  linmin:  2.911e-06  t[s]:   1448.47
	Linear fluid (dielectric constant: 78.4, screening length: 5.74355 Bohr) occupying 0.723075 of unit cell:	Completed after 3 iterations at t[s]:   1472.09
	Linear fluid (dielectric constant: 78.4, screening length: 5.74355 Bohr) occupying 0.723072 of unit cell:	Completed after 0 iterations at t[s]:   1489.53
	FillingsUpdate:  mu: -0.171251800  nElectrons: 974.355709
	SubspaceRotationAdjust: set factor to 0.143
ElecMinimize: Iter:  22  G: -6517.953127166365448  |grad|_K:  1.943e-07  alpha:  2.654e-01  linmin:  6.395e-05  t[s]:   1510.77
	Linear fluid (dielectric constant: 78.4, screening length: 5.74355 Bohr) occupying 0.723077 of unit cell:	Completed after 2 iterations at t[s]:   1535.56
	Linear fluid (dielectric constant: 78.4, screening length: 5.74355 Bohr) occupying 0.723077 of unit cell:	Completed after 0 iterations at t[s]:   1553.00
	FillingsUpdate:  mu: -0.171251800  nElectrons: 974.353519
	SubspaceRotationAdjust: set factor to 0.173
ElecMinimize: Iter:  23  G: -6517.953129821117727  |grad|_K:  1.526e-07  alpha:  2.436e-01  linmin: -5.907e-05  t[s]:   1573.40
	Linear fluid (dielectric constant: 78.4, screening length: 5.74355 Bohr) occupying 0.723079 of unit cell:	Completed after 2 iterations at t[s]:   1596.33
	Linear fluid (dielectric constant: 78.4, screening length: 5.74355 Bohr) occupying 0.723080 of unit cell:	Completed after 0 iterations at t[s]:   1613.38
	FillingsUpdate:  mu: -0.171251800  nElectrons: 974.348198
	SubspaceRotationAdjust: set factor to 0.179
ElecMinimize: Iter:  24  G: -6517.953132308044587  |grad|_K:  1.280e-07  alpha:  2.990e-01  linmin: -5.314e-05  t[s]:   1634.04
	Linear fluid (dielectric constant: 78.4, screening length: 5.74355 Bohr) occupying 0.723081 of unit cell:	Completed after 2 iterations at t[s]:   1658.87
	Linear fluid (dielectric constant: 78.4, screening length: 5.74355 Bohr) occupying 0.723082 of unit cell:	Completed after 0 iterations at t[s]:   1675.71
	FillingsUpdate:  mu: -0.171251800  nElectrons: 974.352938
	SubspaceRotationAdjust: set factor to 0.228
ElecMinimize: Iter:  25  G: -6517.953134868685993  |grad|_K:  1.157e-07  alpha:  4.373e-01  linmin: -2.710e-05  t[s]:   1696.93
	Linear fluid (dielectric constant: 78.4, screening length: 5.74355 Bohr) occupying 0.723083 of unit cell:	Completed after 3 iterations at t[s]:   1721.96
	Linear fluid (dielectric constant: 78.4, screening length: 5.74355 Bohr) occupying 0.723082 of unit cell:	Completed after 1 iterations at t[s]:   1739.60
	FillingsUpdate:  mu: -0.171251800  nElectrons: 974.356347
	SubspaceRotationAdjust: set factor to 0.136
ElecMinimize: Iter:  26  G: -6517.953135520569958  |grad|_K:  1.964e-07  alpha:  2.219e-01  linmin:  1.357e-05  t[s]:   1760.01
	Linear fluid (dielectric constant: 78.4, screening length: 5.74355 Bohr) occupying 0.723083 of unit cell:	Completed after 3 iterations at t[s]:   1785.40
	Linear fluid (dielectric constant: 78.4, screening length: 5.74355 Bohr) occupying 0.723083 of unit cell:	Completed after 2 iterations at t[s]:   1802.74
	FillingsUpdate:  mu: -0.171251800  nElectrons: 974.354479
	SubspaceRotationAdjust: set factor to 0.259
ElecMinimize: Iter:  27  G: -6517.953136586505934  |grad|_K:  1.285e-07  alpha:  9.277e-02  linmin:  6.344e-06  t[s]:   1823.24
	Linear fluid (dielectric constant: 78.4, screening length: 5.74355 Bohr) occupying 0.723083 of unit cell:	Completed after 0 iterations at t[s]:   1846.31
ElecMinimize: 	Predicted alpha/alphaT>3.000000, increasing alphaT to 2.783145e-01.
	Linear fluid (dielectric constant: 78.4, screening length: 5.74355 Bohr) occupying 0.723083 of unit cell:	Completed after 3 iterations at t[s]:   1863.47
	Linear fluid (dielectric constant: 78.4, screening length: 5.74355 Bohr) occupying 0.723083 of unit cell:	Completed after 1 iterations at t[s]:   1881.29
	FillingsUpdate:  mu: -0.171251800  nElectrons: 974.350855
	SubspaceRotationAdjust: set factor to 0.216
ElecMinimize: Iter:  28  G: -6517.953137342651644  |grad|_K:  1.280e-07  alpha:  1.516e-01  linmin:  2.808e-05  t[s]:   1901.59
	Linear fluid (dielectric constant: 78.4, screening length: 5.74355 Bohr) occupying 0.723083 of unit cell:	Completed after 2 iterations at t[s]:   1926.09
	Linear fluid (dielectric constant: 78.4, screening length: 5.74355 Bohr) occupying 0.723083 of unit cell:	Completed after 0 iterations at t[s]:   1943.21
	FillingsUpdate:  mu: -0.171251800  nElectrons: 974.352337
	SubspaceRotationAdjust: set factor to 0.32
ElecMinimize: Iter:  29  G: -6517.953137847496691  |grad|_K:  8.750e-08  alpha:  1.106e-01  linmin:  1.239e-05  t[s]:   1966.16
	Linear fluid (dielectric constant: 78.4, screening length: 5.74355 Bohr) occupying 0.723083 of unit cell:	Completed after 0 iterations at t[s]:   1987.77
ElecMinimize: 	Predicted alpha/alphaT>3.000000, increasing alphaT to 3.318063e-01.
	Linear fluid (dielectric constant: 78.4, screening length: 5.74355 Bohr) occupying 0.723083 of unit cell:	Completed after 4 iterations at t[s]:   2039.93
	Linear fluid (dielectric constant: 78.4, screening length: 5.74355 Bohr) occupying 0.723083 of unit cell:	Completed after 2 iterations at t[s]:   2080.86
	FillingsUpdate:  mu: -0.171251800  nElectrons: 974.355630
	SubspaceRotationAdjust: set factor to 0.205
ElecMinimize: Iter:  30  G: -6517.953138166572899  |grad|_K:  1.350e-07  alpha:  1.566e-01  linmin:  3.639e-05  t[s]:   2098.84
	Linear fluid (dielectric constant: 78.4, screening length: 5.74355 Bohr) occupying 0.723082 of unit cell:	Completed after 3 iterations at t[s]:   2116.86
	Linear fluid (dielectric constant: 78.4, screening length: 5.74355 Bohr) occupying 0.723082 of unit cell:	Completed after 0 iterations at t[s]:   2131.68
	FillingsUpdate:  mu: -0.171251800  nElectrons: 974.355607
	SubspaceRotationAdjust: set factor to 0.193
ElecMinimize: Iter:  31  G: -6517.953138587507055  |grad|_K:  7.565e-08  alpha:  7.720e-02  linmin:  2.567e-05  t[s]:   2149.38
	Linear fluid (dielectric constant: 78.4, screening length: 5.74355 Bohr) occupying 0.723082 of unit cell:	Completed after 0 iterations at t[s]:   2166.27
	Linear fluid (dielectric constant: 78.4, screening length: 5.74355 Bohr) occupying 0.723081 of unit cell:	Completed after 1 iterations at t[s]:   2182.17
	FillingsUpdate:  mu: -0.171251800  nElectrons: 974.355742
	SubspaceRotationAdjust: set factor to 0.187
ElecMinimize: Iter:  32  G: -6517.953138671367924  |grad|_K:  6.229e-08  alpha:  2.266e-01  linmin:  3.059e-05  t[s]:   2202.44
	Linear fluid (dielectric constant: 78.4, screening length: 5.74355 Bohr) occupying 0.723080 of unit cell:	Completed after 0 iterations at t[s]:   2225.74
	Linear fluid (dielectric constant: 78.4, screening length: 5.74355 Bohr) occupying 0.723080 of unit cell:	Completed after 0 iterations at t[s]:   2242.31
	FillingsUpdate:  mu: -0.171251800  nElectrons: 974.355203
	SubspaceRotationAdjust: set factor to 0.216
ElecMinimize: Iter:  33  G: -6517.953138899776604  |grad|_K:  5.133e-08  alpha:  2.427e-01  linmin:  1.141e-08  t[s]:   2263.80
	Linear fluid (dielectric constant: 78.4, screening length: 5.74355 Bohr) occupying 0.723078 of unit cell:	Completed after 2 iterations at t[s]:   2285.88
	Linear fluid (dielectric constant: 78.4, screening length: 5.74355 Bohr) occupying 0.723079 of unit cell:	Completed after 2 iterations at t[s]:   2303.80
ElecMinimize: 	Step increased G by 2.008164e-07, reducing alpha to 5.159619e-03.
	Linear fluid (dielectric constant: 78.4, screening length: 5.74355 Bohr) occupying 0.723080 of unit cell:	Completed after 0 iterations at t[s]:   2339.96
ElecMinimize: 	Step increased G by 1.739454e-07, reducing alpha to 5.159619e-04.
	Linear fluid (dielectric constant: 78.4, screening length: 5.74355 Bohr) occupying 0.723080 of unit cell:	Completed after 0 iterations at t[s]:   2377.01
ElecMinimize: 	Step increased G by 1.720509e-07, reducing alpha to 5.159619e-05.
ElecMinimize: 	Step failed to reduce G after 3 attempts. Quitting step.
ElecMinimize: 	Undoing step.
	Linear fluid (dielectric constant: 78.4, screening length: 5.74355 Bohr) occupying 0.723080 of unit cell:	Completed after 0 iterations at t[s]:   2413.11
ElecMinimize: 	Step failed: resetting search direction.
	FillingsUpdate:  mu: -0.171251800  nElectrons: 974.355202
	SubspaceRotationAdjust: set factor to 0.159
ElecMinimize: Iter:  34  G: -6517.953138727812984  |grad|_K:  8.929e-08  alpha:  5.160e-05
	Linear fluid (dielectric constant: 78.4, screening length: 5.74355 Bohr) occupying 0.723079 of unit cell:	Completed after 3 iterations at t[s]:   2459.52
	Linear fluid (dielectric constant: 78.4, screening length: 5.74355 Bohr) occupying 0.723079 of unit cell:	Completed after 2 iterations at t[s]:   2477.61
	FillingsUpdate:  mu: -0.171251800  nElectrons: 974.357713
	SubspaceRotationAdjust: set factor to 0.0775
ElecMinimize: Iter:  35  G: -6517.953138914508600  |grad|_K:  5.736e-08  alpha:  9.120e-02  linmin:  4.216e-04  t[s]:   2499.00
	Linear fluid (dielectric constant: 78.4, screening length: 5.74355 Bohr) occupying 0.723079 of unit cell:	Completed after 0 iterations at t[s]:   2520.92
ElecMinimize: 	Predicted alpha/alphaT>3.000000, increasing alphaT to 2.736072e-01.
	Linear fluid (dielectric constant: 78.4, screening length: 5.74355 Bohr) occupying 0.723079 of unit cell:	Completed after 0 iterations at t[s]:   2537.87
	Linear fluid (dielectric constant: 78.4, screening length: 5.74355 Bohr) occupying 0.723079 of unit cell:	Completed after 0 iterations at t[s]:   2554.58
	FillingsUpdate:  mu: -0.171251800  nElectrons: 974.357150
	SubspaceRotationAdjust: set factor to 0.107
ElecMinimize: Iter:  36  G: -6517.953139148856280  |grad|_K:  5.159e-08  alpha:  3.298e-01  linmin:  1.439e-07  t[s]:   2574.80
	Linear fluid (dielectric constant: 78.4, screening length: 5.74355 Bohr) occupying 0.723077 of unit cell:	Completed after 3 iterations at t[s]:   2598.17
	Linear fluid (dielectric constant: 78.4, screening length: 5.74355 Bohr) occupying 0.723078 of unit cell:	Completed after 0 iterations at t[s]:   2615.53
	FillingsUpdate:  mu: -0.171251800  nElectrons: 974.356402
	SubspaceRotationAdjust: set factor to 0.0929
ElecMinimize: Iter:  37  G: -6517.953139236560673  |grad|_K:  1.057e-07  alpha:  9.650e-02  linmin:  1.285e-04  t[s]:   2636.48
ElecMinimize: 	Bad step direction: g.d > 0.
ElecMinimize: 	Undoing step.
	Linear fluid (dielectric constant: 78.4, screening length: 5.74355 Bohr) occupying 0.723078 of unit cell:	Completed after 0 iterations at t[s]:   2659.55
ElecMinimize: 	Step failed: resetting search direction.
	FillingsUpdate:  mu: -0.171251800  nElectrons: 974.356402
	SubspaceRotationAdjust: set factor to 0.132
ElecMinimize: Iter:  38  G: -6517.953139236586139  |grad|_K:  1.033e-07  alpha:  0.000e+00
	Linear fluid (dielectric constant: 78.4, screening length: 5.74355 Bohr) occupying 0.723078 of unit cell:	Completed after 2 iterations at t[s]:   2703.20
	Linear fluid (dielectric constant: 78.4, screening length: 5.74355 Bohr) occupying 0.723078 of unit cell:	Completed after 0 iterations at t[s]:   2720.59
ElecMinimize: 	Step increased G by 5.362017e-08, reducing alpha to 4.083929e-03.
	Linear fluid (dielectric constant: 78.4, screening length: 5.74355 Bohr) occupying 0.723078 of unit cell:	Completed after 0 iterations at t[s]:   2756.43
ElecMinimize: 	Step increased G by 3.101923e-08, reducing alpha to 4.083929e-04.
	Linear fluid (dielectric constant: 78.4, screening length: 5.74355 Bohr) occupying 0.723078 of unit cell:	Completed after 0 iterations at t[s]:   2793.13
ElecMinimize: 	Step increased G by 2.970683e-08, reducing alpha to 4.083929e-05.
ElecMinimize: 	Step failed to reduce G after 3 attempts. Quitting step.
ElecMinimize: 	Undoing step.
	Linear fluid (dielectric constant: 78.4, screening length: 5.74355 Bohr) occupying 0.723078 of unit cell:	Completed after 0 iterations at t[s]:   2834.21
ElecMinimize: 	Step failed along negative gradient direction.
ElecMinimize: Probably at roundoff error limit. (Stopping)
Setting wave functions to eigenvectors of Hamiltonian

# Ionic positions in lattice coordinates:
ion Ta  -0.000000005950000   0.203323882794756   0.478797375315049 0
ion Ta  -0.000000005950000   0.453323882794756   0.521202615484950 0
ion Ta   0.249999994050000   0.203323882794756   0.478797375315049 0
ion Ta   0.249999994050000   0.453323882794756   0.521202615484950 0
ion Ta   0.499999994050000   0.203323882794756   0.478797375315049 0
ion Ta   0.499999994050000   0.453323882794756   0.521202615484950 0
ion Ta   0.749999994050000   0.203323882794756   0.478797375315049 0
ion Ta   0.749999994050000   0.453323882794756   0.521202615484950 0
ion Ta  -0.000000005950000   0.703323882794757   0.478797375315049 0
ion Ta  -0.000000005950000   0.953323882794757   0.521202615484950 0
ion Ta   0.249999994050000   0.703323882794757   0.478797375315049 0
ion Ta   0.249999994050000   0.953323882794757   0.521202615484950 0
ion Ta   0.499999994050000   0.703323882794757   0.478797375315049 0
ion Ta   0.499999994050000   0.953323882794757   0.521202615484950 0
ion Ta   0.749999994050000   0.703323882794757   0.478797375315049 0
ion Ta   0.749999994050000   0.953323882794757   0.521202615484950 0
ion Ni   0.124999994050000   0.105575890418311   0.555873428480333 0
ion Ni   0.124999994050000   0.355575890418311   0.444126562319666 0
ion Ni   0.124999994050000   0.301142582909655   0.555883259431346 0
ion Ni   0.124999994050000   0.051142582909655   0.444116731368653 0
ion Ni   0.374999994050000   0.105575890418311   0.555873428480333 0
ion Ni   0.374999994050000   0.355575890418311   0.444126562319666 0
ion Ni   0.374999994050000   0.301142582909655   0.555883259431346 0
ion Ni   0.374999994050000   0.051142582909655   0.444116731368653 0
ion Ni   0.624999994050000   0.105575890418311   0.555873428480333 0
ion Ni   0.624999994050000   0.355575890418311   0.444126562319666 0
ion Ni   0.624999994050000   0.301142582909655   0.555883259431346 0
ion Ni   0.624999994050000   0.051142582909655   0.444116731368653 0
ion Ni   0.874999994050000   0.105575890418311   0.555873428480333 0
ion Ni   0.874999994050000   0.355575890418311   0.444126562319666 0
ion Ni   0.874999994050000   0.301142582909655   0.555883259431346 0
ion Ni   0.874999994050000   0.051142582909655   0.444116731368653 0
ion Ni   0.124999994050000   0.605575890418311   0.555873428480333 0
ion Ni   0.124999994050000   0.855575890418311   0.444126562319666 0
ion Ni   0.124999994050000   0.801142582909655   0.555883259431346 0
ion Ni   0.124999994050000   0.551142582909655   0.444116731368653 0
ion Ni   0.374999994050000   0.605575890418311   0.555873428480333 0
ion Ni   0.374999994050000   0.855575890418311   0.444126562319666 0
ion Ni   0.374999994050000   0.801142582909655   0.555883259431346 0
ion Ni   0.374999994050000   0.551142582909655   0.444116731368653 0
ion Ni   0.624999994050000   0.605575890418311   0.555873428480333 0
ion Ni   0.624999994050000   0.855575890418311   0.444126562319666 0
ion Ni   0.624999994050000   0.801142582909655   0.555883259431346 0
ion Ni   0.624999994050000   0.551142582909655   0.444116731368653 0
ion Ni   0.874999994050000   0.605575890418311   0.555873428480333 0
ion Ni   0.874999994050000   0.855575890418311   0.444126562319666 0
ion Ni   0.874999994050000   0.801142582909655   0.555883259431346 0
ion Ni   0.874999994050000   0.551142582909655   0.444116731368653 0
ion Te   0.124999994050000   0.453322878917926   0.633572370315355 0
ion Te   0.124999994050000   0.203322878917926   0.366427620484644 0
ion Te  -0.000000005950000   0.453269813709361   0.376950770048916 0
ion Te  -0.000000005950000   0.203269813709361   0.623049220751083 0
ion Te   0.374999994050000   0.453322878917926   0.633572370315355 0
ion Te   0.374999994050000   0.203322878917926   0.366427620484644 0
ion Te   0.249999994050000   0.453269813709361   0.376950770048916 0
ion Te   0.249999994050000   0.203269813709361   0.623049220751083 0
ion Te   0.624999994050000   0.453322878917926   0.633572370315355 0
ion Te   0.624999994050000   0.203322878917926   0.366427620484644 0
ion Te   0.499999994050000   0.453269813709361   0.376950770048916 0
ion Te   0.499999994050000   0.203269813709361   0.623049220751083 0
ion Te   0.874999994050000   0.453322878917926   0.633572370315355 0
ion Te   0.874999994050000   0.203322878917926   0.366427620484644 0
ion Te   0.749999994050000   0.453269813709361   0.376950770048916 0
ion Te   0.749999994050000   0.203269813709361   0.623049220751083 0
ion Te   0.124999994050000   0.953322878917926   0.633572370315355 0
ion Te   0.124999994050000   0.703322878917926   0.366427620484644 0
ion Te  -0.000000005950000   0.953269813709361   0.376950770048916 0
ion Te  -0.000000005950000   0.703269813709361   0.623049220751083 0
ion Te   0.374999994050000   0.953322878917926   0.633572370315355 0
ion Te   0.374999994050000   0.703322878917926   0.366427620484644 0
ion Te   0.249999994050000   0.953269813709361   0.376950770048916 0
ion Te   0.249999994050000   0.703269813709361   0.623049220751083 0
ion Te   0.624999994050000   0.953322878917926   0.633572370315355 0
ion Te   0.624999994050000   0.703322878917926   0.366427620484644 0
ion Te   0.499999994050000   0.953269813709361   0.376950770048916 0
ion Te   0.499999994050000   0.703269813709361   0.623049220751083 0
ion Te   0.874999994050000   0.953322878917926   0.633572370315355 0
ion Te   0.874999994050000   0.703322878917926   0.366427620484644 0
ion Te   0.749999994050000   0.953269813709361   0.376950770048916 0
ion Te   0.749999994050000   0.703269813709361   0.623049220751083 0


# Forces in Lattice coordinates:
force Ta  -0.000000000000000   0.003952865629596  -0.095256596776031 0
force Ta   0.000000000000000   0.003952865629596   0.095256596775690 0
force Ta  -0.000000000000000   0.003952865629596  -0.095256596775803 0
force Ta  -0.000000000000000   0.003952865629596   0.095256596776031 0
force Ta   0.000000000000000   0.003952865629596  -0.095256596775803 0
force Ta  -0.000000000000000   0.003952865629596   0.095256596776031 0
force Ta   0.000000000000000   0.003952865629596  -0.095256596775917 0
force Ta  -0.000000000000000   0.003952865629596   0.095256596775917 0
force Ta   0.000000000000000   0.003952865629596  -0.095256596775803 0
force Ta  -0.000000000000000   0.003952865629596   0.095256596775803 0
force Ta   0.000000000000000   0.003952865629596  -0.095256596775690 0
force Ta  -0.000000000000000   0.003952865629596   0.095256596775690 0
force Ta   0.000000000000000   0.003952865629596  -0.095256596775803 0
force Ta   0.000000000000000   0.003952865629596   0.095256596775917 0
force Ta   0.000000000000000   0.003952865629596  -0.095256596776031 0
force Ta  -0.000000000000000   0.003952865629596   0.095256596776030 0
force Ni   0.000000000000000  -0.012396427638275  -0.015493279151611 0
force Ni  -0.000000000000000  -0.012396427638247   0.015493279151157 0
force Ni   0.000000000000000  -0.047816841453072  -0.017039751406579 0
force Ni  -0.000000000000000  -0.047816841453058   0.017039751405670 0
force Ni   0.000000000000000  -0.012396427638261  -0.015493279151610 0
force Ni  -0.000000000000000  -0.012396427638261   0.015493279151156 0
force Ni   0.000000000000000  -0.047816841453072  -0.017039751406579 0
force Ni   0.000000000000000  -0.047816841453058   0.017039751406124 0
force Ni   0.000000000000000  -0.012396427638275  -0.015493279152974 0
force Ni   0.000000000000000  -0.012396427638261   0.015493279151155 0
force Ni   0.000000000000000  -0.047816841453072  -0.017039751406579 0
force Ni  -0.000000000000000  -0.047816841453015   0.017039751405671 0
force Ni  -0.000000000000000  -0.012396427638261  -0.015493279152065 0
force Ni  -0.000000000000000  -0.012396427638275   0.015493279151610 0
force Ni  -0.000000000000000  -0.047816841453044  -0.017039751406578 0
force Ni   0.000000000000000  -0.047816841453044   0.017039751406125 0
force Ni   0.000000000000000  -0.012396427638275  -0.015493279152520 0
force Ni   0.000000000000000  -0.012396427638247   0.015493279150702 0
force Ni  -0.000000000000000  -0.047816841453072  -0.017039751407033 0
force Ni  -0.000000000000000  -0.047816841453086   0.017039751405669 0
force Ni   0.000000000000000  -0.012396427638247  -0.015493279152520 0
force Ni  -0.000000000000000  -0.012396427638247   0.015493279151156 0
force Ni   0.000000000000000  -0.047816841453044  -0.017039751407033 0
force Ni  -0.000000000000000  -0.047816841453058   0.017039751406579 0
force Ni   0.000000000000000  -0.012396427638261  -0.015493279152975 0
force Ni  -0.000000000000000  -0.012396427638275   0.015493279151155 0
force Ni   0.000000000000000  -0.047816841453030  -0.017039751407034 0
force Ni   0.000000000000000  -0.047816841453044   0.017039751405671 0
force Ni  -0.000000000000000  -0.012396427638289  -0.015493279152974 0
force Ni  -0.000000000000000  -0.012396427638233   0.015493279151611 0
force Ni  -0.000000000000000  -0.047816841453058  -0.017039751407034 0
force Ni   0.000000000000000  -0.047816841453058   0.017039751405670 0
force Te   0.000000000000000   0.001151657804968   0.288524642447098 0
force Te   0.000000000000000   0.001151657804968  -0.288524642446644 0
force Te   0.000000000000000   0.002623214943519  -0.261779028821443 0
force Te  -0.000000000000000   0.002623214943519   0.261779028821445 0
force Te  -0.000000000000000   0.001151657804968   0.288524642446871 0
force Te  -0.000000000000000   0.001151657804968  -0.288524642446644 0
force Te  -0.000000000000000   0.002623214943519  -0.261779028821671 0
force Te  -0.000000000000000   0.002623214943519   0.261779028821445 0
force Te  -0.000000000000000   0.001151657804968   0.288524642447099 0
force Te   0.000000000000000   0.001151657804968  -0.288524642446644 0
force Te   0.000000000000000   0.002623214943519  -0.261779028821672 0
force Te  -0.000000000000000   0.002623214943519   0.261779028821444 0
force Te   0.000000000000000   0.001151657804968   0.288524642447325 0
force Te  -0.000000000000000   0.001151657804968  -0.288524642446644 0
force Te   0.000000000000000   0.002623214943519  -0.261779028821671 0
force Te   0.000000000000000   0.002623214943519   0.261779028821671 0
force Te   0.000000000000000   0.001151657804968   0.288524642447099 0
force Te   0.000000000000000   0.001151657804968  -0.288524642447326 0
force Te  -0.000000000000000   0.002623214943519  -0.261779028822126 0
force Te   0.000000000000000   0.002623214943519   0.261779028821444 0
force Te   0.000000000000000   0.001151657804968   0.288524642447098 0
force Te   0.000000000000000   0.001151657804968  -0.288524642447554 0
force Te  -0.000000000000000   0.002623214943519  -0.261779028821671 0
force Te   0.000000000000000   0.002623214943519   0.261779028821444 0
force Te   0.000000000000000   0.001151657804968   0.288524642447326 0
force Te  -0.000000000000000   0.001151657804968  -0.288524642447326 0
force Te   0.000000000000000   0.002623214943519  -0.261779028821898 0
force Te  -0.000000000000000   0.002623214943519   0.261779028821672 0
force Te   0.000000000000000   0.001151657804968   0.288524642447553 0
force Te  -0.000000000000000   0.001151657804968  -0.288524642447326 0
force Te  -0.000000000000000   0.002623214943519  -0.261779028821671 0
force Te   0.000000000000000   0.002623214943519   0.261779028821672 0

# Energy components:
   A_diel =        0.0954629274926683
   Eewald =    41761.4431508662091801
       EH =    47535.0065595058695180
     Eloc =   -96787.9074450570333283
      Enl =      432.5205010476195184
      Exc =    -1138.9998495910572274
 Exc_core =      367.4065524177970019
       KE =     1145.7131323312446511
  MuShift =        0.0318146598577442
-------------------------------------
     Etot =    -6684.6901208920016870
       TS =        0.1233068819672061
-------------------------------------
        F =    -6684.8134277739691242
      muN =     -166.8602885670058527
-------------------------------------
        G =    -6517.9531392069629874

IonicMinimize: Iter:   0  G: -6517.953139206962987  |grad|_K:  0.000e+00  t[s]:   2869.92
IonicMinimize: Converged (|grad|_K<1.000000e-04).

#--- Lowdin population analysis ---
# oxidation-state Ta -0.265 -0.265 -0.265 -0.265 -0.265 -0.265 -0.265 -0.265 -0.265 -0.265 -0.265 -0.265 -0.265 -0.265 -0.265 -0.265
# oxidation-state Ni -0.444 -0.444 -0.444 -0.444 -0.444 -0.444 -0.444 -0.444 -0.444 -0.444 -0.444 -0.444 -0.444 -0.444 -0.444 -0.444 -0.444 -0.444 -0.444 -0.444 -0.444 -0.444 -0.444 -0.444 -0.444 -0.444 -0.444 -0.444 -0.444 -0.444 -0.444 -0.444
# oxidation-state Te +0.644 +0.644 +0.848 +0.848 +0.644 +0.644 +0.848 +0.848 +0.644 +0.644 +0.848 +0.848 +0.644 +0.644 +0.848 +0.848 +0.644 +0.644 +0.848 +0.848 +0.644 +0.644 +0.848 +0.848 +0.644 +0.644 +0.848 +0.848 +0.644 +0.644 +0.848 +0.848


Dumping 'NbTe2.fillings' ... done
Dumping 'NbTe2.wfns' ... done
Dumping 'NbTe2.fluidState' ... done
Dumping 'NbTe2.eigenvals' ... done
End date and time: Thu Jul 16 17:36:34 2020  (Duration: 0-0:48:06.18)
Done!

*************** JDFTx 1.5.0  ***************

Start date and time: Thu Jul 16 19:37:43 2020
Executable jdftx_gpu with command-line: -i Charged.in -o Charged.out
Running on hosts (process indices):  amax (0-5)
Divided in process groups (process indices):  0 (0)  1 (1)  2 (2)  3 (3)  4 (4)  5 (5)
gpuInit: Found compatible cuda device 0 'Tesla K80'
gpuInit: Found compatible cuda device 1 'Tesla K80'
gpuInit: Found compatible cuda device 2 'Tesla K80'
gpuInit: Found compatible cuda device 3 'Tesla K80'
gpuInit: Found compatible cuda device 4 'Tesla K80'
gpuInit: Found compatible cuda device 5 'Tesla K80'
gpuInit: Selected device 0
Resource initialization completed at t[s]:     28.18
Run totals: 6 processes, 24 threads, 6 GPUs


Input parsed successfully to the following command list (including defaults):

basis kpoint-dependent
cache-projectors no
coords-type Lattice
core-overlap-check none
coulomb-interaction Slab 001
coulomb-truncation-embed 0 0 0.5
davidson-band-ratio 1.1
dump End State
dump-name NbTe2.$VAR
elec-cutoff 20 100
elec-eigen-algo Davidson
elec-ex-corr gga-PBE
elec-smearing Gauss 0.0073499
electronic-minimize  \
	dirUpdateScheme      FletcherReeves \
	linminMethod         DirUpdateRecommended \
	nIterations          500 \
	history              15 \
	knormThreshold       0 \
	energyDiffThreshold  1e-08 \
	nEnergyDiff          2 \
	alphaTstart          1 \
	alphaTmin            1e-10 \
	updateTestStepSize   yes \
	alphaTreduceFactor   0.1 \
	alphaTincreaseFactor 3 \
	nAlphaAdjustMax      3 \
	wolfeEnergy          0.0001 \
	wolfeGradient        0.9 \
	fdTest               no
exchange-regularization WignerSeitzTruncated
fluid LinearPCM 298.000000 1.013250
fluid-anion F- 1 MeanFieldLJ \
	epsBulk 1 \
	pMol 0 \
	epsInf 1 \
	Pvap 0 \
	sigmaBulk 0 \
	Rvdw 2.24877 \
	Res 0 \
	tauNuc 343133
fluid-cation Na+ 1 MeanFieldLJ \
	epsBulk 1 \
	pMol 0 \
	epsInf 1 \
	Pvap 0 \
	sigmaBulk 0 \
	Rvdw 2.19208 \
	Res 0 \
	tauNuc 343133
fluid-ex-corr lda-TF lda-PZ
fluid-gummel-loop 10 1.000000e-05
fluid-minimize  \
	dirUpdateScheme      PolakRibiere \
	linminMethod         DirUpdateRecommended \
	nIterations          400 \
	history              15 \
	knormThreshold       1e-11 \
	energyDiffThreshold  0 \
	nEnergyDiff          2 \
	alphaTstart          1 \
	alphaTmin            1e-10 \
	updateTestStepSize   yes \
	alphaTreduceFactor   0.1 \
	alphaTincreaseFactor 3 \
	nAlphaAdjustMax      6 \
	wolfeEnergy          0.0001 \
	wolfeGradient        0.9 \
	fdTest               no
fluid-solvent H2O 55.338 ScalarEOS \
	epsBulk 78.4 \
	pMol 0.92466 \
	epsInf 1.77 \
	Pvap 1.06736e-10 \
	sigmaBulk 4.62e-05 \
	Rvdw 2.61727 \
	Res 1.42 \
	tauNuc 343133 \
	poleEl 15 7 1
forces-output-coords Positions
initial-state NbTe2.$VAR
ion Ta  -0.000000000000000   0.203323878544755   0.478797379915049 0
ion Ta  -0.000000000000000   0.453323859544757   0.521202620084951 0
ion Ta   0.250000000000000   0.203323878544755   0.478797379915049 0
ion Ta   0.250000000000000   0.453323859544757   0.521202620084951 0
ion Ta   0.500000000000000   0.203323878544755   0.478797379915049 0
ion Ta   0.500000000000000   0.453323859544757   0.521202620084951 0
ion Ta   0.749999965999997   0.203323878544755   0.478797379915049 0
ion Ta   0.749999965999997   0.453323859544757   0.521202620084951 0
ion Ta  -0.000000000000000   0.703323896544757   0.478797379915049 0
ion Ta  -0.000000000000000   0.953323896544757   0.521202620084951 0
ion Ta   0.250000000000000   0.703323896544757   0.478797379915049 0
ion Ta   0.250000000000000   0.953323896544757   0.521202620084951 0
ion Ta   0.500000000000000   0.703323896544757   0.478797379915049 0
ion Ta   0.500000000000000   0.953323896544757   0.521202620084951 0
ion Ta   0.749999965999997   0.703323896544757   0.478797379915049 0
ion Ta   0.749999965999997   0.953323896544757   0.521202620084951 0
ion Ni   0.125000000000000   0.105580876668312   0.555878429580333 0
ion Ni   0.125000000000000   0.355570857668311   0.444131563419666 0
ion Ni   0.125000000000000   0.301142573659655   0.555888260031348 0
ion Ni   0.125000000000000   0.051142573659655   0.444121731968655 0
ion Ni   0.374999983000002   0.105580876668312   0.555878429580333 0
ion Ni   0.374999983000002   0.355570857668311   0.444131563419666 0
ion Ni   0.374999983000002   0.301142573659655   0.555888260031348 0
ion Ni   0.374999983000002   0.051142573659655   0.444121731968655 0
ion Ni   0.625000016999998   0.105580876668312   0.555878429580333 0
ion Ni   0.625000016999998   0.355570857668311   0.444131563419666 0
ion Ni   0.625000016999998   0.301142573659655   0.555888260031348 0
ion Ni   0.625000016999998   0.051142573659655   0.444121731968655 0
ion Ni   0.874999983000002   0.105580876668312   0.555878429580333 0
ion Ni   0.874999983000002   0.355570857668311   0.444131563419666 0
ion Ni   0.874999983000002   0.301142573659655   0.555888260031348 0
ion Ni   0.874999983000002   0.051142573659655   0.444121731968655 0
ion Ni   0.125000000000000   0.605580895668310   0.555878429580333 0
ion Ni   0.125000000000000   0.855570931668310   0.444131563419666 0
ion Ni   0.125000000000000   0.801142573659655   0.555888260031348 0
ion Ni   0.125000000000000   0.551142610659655   0.444121731968655 0
ion Ni   0.374999983000002   0.605580895668310   0.555878429580333 0
ion Ni   0.374999983000002   0.855570931668310   0.444131563419666 0
ion Ni   0.374999983000002   0.801142573659655   0.555888260031348 0
ion Ni   0.374999983000002   0.551142610659655   0.444121731968655 0
ion Ni   0.625000016999998   0.605580895668310   0.555878429580333 0
ion Ni   0.625000016999998   0.855570931668310   0.444131563419666 0
ion Ni   0.625000016999998   0.801142573659655   0.555888260031348 0
ion Ni   0.625000016999998   0.551142610659655   0.444121731968655 0
ion Ni   0.874999983000002   0.605580895668310   0.555878429580333 0
ion Ni   0.874999983000002   0.855570931668310   0.444131563419666 0
ion Ni   0.874999983000002   0.801142573659655   0.555888260031348 0
ion Ni   0.874999983000002   0.551142610659655   0.444121731968655 0
ion Te   0.125000000000000   0.453327860417924   0.633567366915353 0
ion Te   0.125000000000000   0.203317860417928   0.366422617084642 0
ion Te   0.000000000000000   0.453264794709362   0.376945767148916 0
ion Te  -0.000000000000000   0.203274795709361   0.623044217851083 0
ion Te   0.374999983000002   0.453327860417924   0.633567366915353 0
ion Te   0.374999983000002   0.203317860417928   0.366422617084642 0
ion Te   0.250000000000000   0.453264794709362   0.376945767148916 0
ion Te   0.250000000000000   0.203274795709361   0.623044217851083 0
ion Te   0.625000016999998   0.453327860417924   0.633567366915353 0
ion Te   0.625000016999998   0.203317860417928   0.366422617084642 0
ion Te   0.500000000000000   0.453264794709362   0.376945767148916 0
ion Te   0.500000000000000   0.203274795709361   0.623044217851083 0
ion Te   0.874999983000002   0.453327860417924   0.633567366915353 0
ion Te   0.874999983000002   0.203317860417928   0.366422617084642 0
ion Te   0.749999965999997   0.453264794709362   0.376945767148916 0
ion Te   0.749999965999997   0.203274795709361   0.623044217851083 0
ion Te   0.125000000000000   0.953327897417924   0.633567366915353 0
ion Te   0.125000000000000   0.703317897417928   0.366422617084642 0
ion Te   0.000000000000000   0.953264831709361   0.376945767148916 0
ion Te   0.000000000000000   0.703274832709361   0.623044217851083 0
ion Te   0.374999983000002   0.953327897417924   0.633567366915353 0
ion Te   0.374999983000002   0.703317897417928   0.366422617084642 0
ion Te   0.250000000000000   0.953264831709361   0.376945767148916 0
ion Te   0.250000000000000   0.703274832709361   0.623044217851083 0
ion Te   0.625000016999998   0.953327897417924   0.633567366915353 0
ion Te   0.625000016999998   0.703317897417928   0.366422617084642 0
ion Te   0.500000000000000   0.953264831709361   0.376945767148916 0
ion Te   0.500000000000000   0.703274832709361   0.623044217851083 0
ion Te   0.874999983000002   0.953327897417924   0.633567366915353 0
ion Te   0.874999983000002   0.703317897417928   0.366422617084642 0
ion Te   0.749999965999997   0.953264831709361   0.376945767148916 0
ion Te   0.749999965999997   0.703274832709361   0.623044217851083 0
ion-species GBRV/$ID_pbe.uspp
ion-width Ecut
ionic-minimize  \
	dirUpdateScheme      L-BFGS \
	linminMethod         DirUpdateRecommended \
	nIterations          0 \
	history              15 \
	knormThreshold       0.0001 \
	energyDiffThreshold  1e-06 \
	nEnergyDiff          2 \
	alphaTstart          1 \
	alphaTmin            1e-10 \
	updateTestStepSize   yes \
	alphaTreduceFactor   0.1 \
	alphaTincreaseFactor 3 \
	nAlphaAdjustMax      3 \
	wolfeEnergy          0.0001 \
	wolfeGradient        0.9 \
	fdTest               no
kpoint   0.000000000000   0.000000000000   0.000000000000  1.00000000000000
kpoint-folding 2 3 1 
latt-move-scale 1 1 1
latt-scale 1 1 1 
lattice Triclinic 26.5157 24.3285 38.7764 90 90 90
lattice-minimize  \
	dirUpdateScheme      L-BFGS \
	linminMethod         DirUpdateRecommended \
	nIterations          0 \
	history              15 \
	knormThreshold       0 \
	energyDiffThreshold  1e-06 \
	nEnergyDiff          2 \
	alphaTstart          1 \
	alphaTmin            1e-10 \
	updateTestStepSize   yes \
	alphaTreduceFactor   0.1 \
	alphaTincreaseFactor 3 \
	nAlphaAdjustMax      3 \
	wolfeEnergy          0.0001 \
	wolfeGradient        0.9 \
	fdTest               no
lcao-params -1 1e-06 0.0073499
pcm-variant CANDLE
spintype no-spin
subspace-rotation-factor 1 yes
symmetries automatic
symmetry-threshold 0.0001
target-mu -0.24475 no




---------- Setting up symmetries ----------

Found 8 point-group symmetries of the bravais lattice
Found 32 space-group symmetries with basis
Applied RMS atom displacement 0.000197409 bohrs to make symmetries exact.

---------- Initializing the Grid ----------
R = 
[    26.5157          0          0  ]
[          0    24.3285          0  ]
[          0          0    38.7764  ]
unit cell volume = 25014.2
G =
[   0.236961          0          0  ]
[          0   0.258264          0  ]
[          0          0   0.162036  ]
Minimum fftbox size, Smin = [  120  112  176  ]
Chosen fftbox size, S = [  120  112  180  ]

---------- Initializing tighter grid for wavefunction operations ----------
R = 
[    26.5157          0          0  ]
[          0    24.3285          0  ]
[          0          0    38.7764  ]
unit cell volume = 25014.2
G =
[   0.236961          0          0  ]
[          0   0.258264          0  ]
[          0          0   0.162036  ]
Minimum fftbox size, Smin = [  108  100  160  ]
Chosen fftbox size, S = [  108  100  160  ]

---------- Exchange Correlation functional ----------
Initalized PBE GGA exchange.
Initalized PBE GGA correlation.

---------- Setting up pseudopotentials ----------
Width of ionic core gaussian charges (only for fluid interactions / plotting) set to 0.397384

Reading pseudopotential file '/home/guoxy/vasp/jdftx-1.5.0/build/pseudopotentials/GBRV/ta_pbe.uspp':
  Title: Ta.  Created by USPP 7.3.6 on 14-9-2013
  Reference state energy: -70.583193.  13 valence electrons in orbitals:
    |500>  occupation: 2  eigenvalue: -2.682396
    |510>  occupation: 6  eigenvalue: -1.447928
    |520>  occupation: 3  eigenvalue: -0.131987
    |600>  occupation: 2  eigenvalue: -0.199982
    |610>  occupation: 0  eigenvalue: -0.051129
  lMax: 3  lLocal: 3  QijEcut: 5
  7 projectors sampled on a log grid with 667 points:
    l: 0  eig: -2.682397  rCut: 1.4
    l: 0  eig: -0.199983  rCut: 1.4
    l: 1  eig: -1.447928  rCut: 1.5
    l: 1  eig: -0.051130  rCut: 1.5
    l: 2  eig: -0.131987  rCut: 1.7
    l: 2  eig: 0.150000  rCut: 1.7
    l: 3  eig: 0.250000  rCut: 2.3
  Partial core density with radius 1.2
  Transforming core density to a uniform radial grid of dG=0.02 with 1254 points.
  Transforming local potential to a uniform radial grid of dG=0.02 with 1254 points.
  Transforming nonlocal projectors to a uniform radial grid of dG=0.02 with 432 points.
  Transforming density augmentations to a uniform radial grid of dG=0.02 with 1254 points.
  Transforming atomic orbitals to a uniform radial grid of dG=0.02 with 432 points.
  Core radius for overlap checks: 2.30 bohrs.

Reading pseudopotential file '/home/guoxy/vasp/jdftx-1.5.0/build/pseudopotentials/GBRV/ni_pbe.uspp':
  Title: Ni.  Created by USPP 7.3.6 on 1-4-15
  Reference state energy: -170.398381.  18 valence electrons in orbitals:
    |300>  occupation: 2  eigenvalue: -4.804705
    |310>  occupation: 6  eigenvalue: -3.347751
    |320>  occupation: 8  eigenvalue: -1.042415
    |400>  occupation: 0  eigenvalue: -0.795539
    |410>  occupation: 0  eigenvalue: -0.551375
  lMax: 2  lLocal: 3  QijEcut: 6.5
  6 projectors sampled on a log grid with 611 points:
    l: 0  eig: -4.804708  rCut: 1.44
    l: 0  eig: -0.795541  rCut: 1.44
    l: 1  eig: -3.347753  rCut: 1.55
    l: 1  eig: 0.500000  rCut: 1.55
    l: 2  eig: -1.042418  rCut: 1.5
    l: 2  eig: -0.450000  rCut: 1.5
  Partial core density with radius 0.65
  Transforming core density to a uniform radial grid of dG=0.02 with 1254 points.
  Transforming local potential to a uniform radial grid of dG=0.02 with 1254 points.
  Transforming nonlocal projectors to a uniform radial grid of dG=0.02 with 432 points.
  Transforming density augmentations to a uniform radial grid of dG=0.02 with 1254 points.
  Transforming atomic orbitals to a uniform radial grid of dG=0.02 with 432 points.
  Core radius for overlap checks: 1.55 bohrs.

Reading pseudopotential file '/home/guoxy/vasp/jdftx-1.5.0/build/pseudopotentials/GBRV/te_pbe.uspp':
  Title: Te.  Created by USPP 7.3.6 on 14-9-2013
  Reference state energy: -13.134220.  6 valence electrons in orbitals:
    |500>  occupation: 2  eigenvalue: -0.555231
    |510>  occupation: 4  eigenvalue: -0.218781
  lMax: 2  lLocal: 2  QijEcut: 5
  5 projectors sampled on a log grid with 723 points:
    l: 0  eig: -0.555229  rCut: 2.1
    l: 0  eig: 1.000000  rCut: 2.1
    l: 1  eig: -0.218780  rCut: 2.1
    l: 1  eig: 1.000000  rCut: 2.1
    l: 2  eig: 1.000000  rCut: 2.6
  Partial core density with radius 1.8
  Transforming core density to a uniform radial grid of dG=0.02 with 1254 points.
  Transforming local potential to a uniform radial grid of dG=0.02 with 1254 points.
  Transforming nonlocal projectors to a uniform radial grid of dG=0.02 with 432 points.
  Transforming density augmentations to a uniform radial grid of dG=0.02 with 1254 points.
  Transforming atomic orbitals to a uniform radial grid of dG=0.02 with 432 points.
  Core radius for overlap checks: 2.60 bohrs.

Initialized 3 species with 80 total atoms.

Folded 1 k-points by 2x3x1 to 6 k-points.

---------- Setting up k-points, bands, fillings ----------
Adding inversion symmetry to k-mesh for non-inversion-symmetric unit cell.
Reduced to 4 k-points under symmetry. 
Computing the number of bands and number of electrons
Reading initial fillings from file NbTe2.fillings.
nElectrons: 974.356407   nBands: 752   nStates: 4

----- Setting up reduced wavefunction bases (one per k-point) -----
average nbasis = 106851.833 , ideal nbasis = 106862.509

---------- Setting up coulomb interaction ----------
Fluid mode embedding: using embedded box, but periodic Coulomb kernel.
(Fluid response is responsible for (approximate) separation between periodic images.)
Setting up double-sized grid for truncated Coulomb potentials:
R = 
[    26.5157          0          0  ]
[          0    24.3285          0  ]
[          0          0    77.5528  ]
unit cell volume = 50028.4
G =
[   0.236961          0          0  ]
[          0   0.258264          0  ]
[          0          0  0.0810181  ]
Chosen fftbox size, S = [  120  112  360  ]
Integer grid location selected as the embedding center:
   Grid: [  0  0  90  ]
   Lattice: [  0  0  0.5  ]
   Cartesian: [  0  0  19.3882  ]
Constructing Wigner-Seitz cell: 6 faces (6 quadrilaterals, 0 hexagons)
Range-separation parameter for embedded mesh potentials due to point charges: 0.593022 bohrs.

Initializing van der Waals corrections
	NOTE: vdW corrections apply only for interactions with fluid.
	Ta:  C6:  815.23 Eh-a0^6  R0: 3.326 a0 (WARNING: beyond Grimme's data set)
	Ni:  C6:  187.33 Eh-a0^6  R0: 2.952 a0
	Te:  C6:  550.54 Eh-a0^6  R0: 3.575 a0

---------- Setting up ewald sum ----------
Optimum gaussian width for ewald sums = 7.081640 bohr.
Real space sum over 405 unit cells with max indices [  4  4  2  ]
Reciprocal space sum over 8325 terms with max indices [  7  7  18  ]

---------- Allocating electronic variables ----------
Initializing wave functions:  reading from 'NbTe2.wfns'
----- createFluidSolver() ----- (Fluid-side solver setup)
   Initializing fluid molecule 'H2O'
     Initializing site 'O'
       Electron density: proportional to exp(-r/0.36935)*erfc((r-0.51523)/0.36823) with norm 6.826
       Charge density: gaussian nuclear width 0.478731 with net site charge 0.826
       Polarizability: cuspless exponential with width 0.32 and norm 3.73
       Hard sphere radius: 2.57003 bohrs
       Positions in reference frame:
         [ +0.000000 +0.000000 +0.000000 ]
     Initializing site 'H'
       Electron density: proportional to exp(-r/0.34641)*erfc((r-0)/0.390882) with norm 0.587
       Charge density: gaussian nuclear width 0.377945 with net site charge -0.413
       Polarizability: cuspless exponential with width 0.39 and norm 3.3
       Positions in reference frame:
         [ +0.000000 -1.441945 +1.122523 ]
         [ +0.000000 +1.441945 +1.122523 ]
     Net charge: 0   dipole magnitude: 0.927204
     Initializing spherical shell mfKernel with radius 2.61727 Bohr
     deltaS corrections:
       site 'O': -7.54299
       site 'H': -6.83917
   Initializing fluid molecule 'Na+'
     Initializing site 'Na'
       Electron density: proportional to exp(-r/0.19682)*erfc((r-0.71491)/0.41314) with norm 8.1383
       Charge density: gaussian nuclear width 0.365347 with net site charge -1
       Hard sphere radius: 1.86327 bohrs
       Positions in reference frame:
         [ +0.000000 +0.000000 +0.000000 ]
     Net charge: -1   dipole magnitude: 0
     Initializing gaussian mfKernel with width: 1.55004 Bohr
     deltaS corrections:
       site 'Na': -22.3555
   Initializing fluid molecule 'F-'
     Initializing site 'F'
       Electron density: proportional to exp(-r/0.38886)*erfc((r-0)/0.438782) with norm 8
       Charge density: gaussian nuclear width 0.374796 with net site charge 1
       Hard sphere radius: 2.39995 bohrs
       Positions in reference frame:
         [ +0.000000 +0.000000 +0.000000 ]
     Net charge: 1   dipole magnitude: 0
     Initializing gaussian mfKernel with width: 1.59012 Bohr
     deltaS corrections:
       site 'F': -9.04335

Correction to mu due to finite nuclear width = -0.0193568
   Cavity determined by nc: 0.00142 and sigma: 0.707107
   Nonlocal vdW cavity from gaussian model electron density with norm = 8 and sigma = 0.993594 bohr
   Charge asymmetry in cavity with sensitivity pCavity = 36.5 e-bohr/Eh
   Electrostatic cavity expanded by eta = 1.46 bohrs
   Weighted density cavitation model constrained by Nbulk: 0.0049383 bohr^-3, Pvap: 3.14029 kPa, Rvdw: 2.61727 bohr and sigmaBulk: 4.62e-05 Eh/bohr^2 at T: 298 K.
   Weighted density dispersion model using vdW pair potentials with single solvent site with sqrtC6eff: 0.77 SI.
Reading fluid state from 'NbTe2.fluidState'


---- Citations for features of the code used in this run ----

   Software package:
      R. Sundararaman, K. Letchworth-Weaver, K.A. Schwarz, D. Gunceler, Y. Ozhabes and T.A. Arias, 'JDFTx: software for joint density-functional theory', SoftwareX 6, 278 (2017)

   gga-PBE exchange-correlation functional:
      J.P. Perdew, K. Burke and M. Ernzerhof, Phys. Rev. Lett. 77, 3865 (1996)

   Pseudopotentials:
      KF Garrity, JW Bennett, KM Rabe and D Vanderbilt, Comput. Mater. Sci. 81, 446 (2014)

   Truncated Coulomb potentials:
      R. Sundararaman and T.A. Arias, Phys. Rev. B 87, 165122 (2013)

   Van der Waals correction pair-potentials:
      S. Grimme, J. Comput. Chem. 27, 1787 (2006)

   Charge-asymmetric nonlocally-determined local-electric (CANDLE) solvation model:
      R. Sundararaman and W.A. Goddard III, J. Chem. Phys. 142, 064107 (2015)

   Total energy minimization with Auxiliary Hamiltonian:
      C. Freysoldt, S. Boeck, and J. Neugebauer, Phys. Rev. B 79, 241103(R) (2009)

   Grand-canonical (fixed-potential) DFT:
      R. Sundararaman, W. A. Goddard III and T. A. Arias, J. Chem. Phys. 146, 114104 (2017)

This list may not be complete. Please suggest additional citations or
report any other bugs at https://github.com/shankar1729/jdftx/issues

Initialization completed successfully at t[s]:     62.39

Shifting auxilliary hamiltonian by -0.073499 to set nElectrons=974.356407
	Linear fluid (dielectric constant: 78.4, screening length: 5.74355 Bohr) occupying 0.723074 of unit cell:	Completed after 1 iterations at t[s]:     69.82

-------- Electronic minimization -----------
	Linear fluid (dielectric constant: 78.4, screening length: 5.74355 Bohr) occupying 0.723074 of unit cell:	Completed after 0 iterations at t[s]:     77.44
	FillingsUpdate:  mu: -0.244750400  nElectrons: 974.356407
ElecMinimize: Iter:   0  G: -6446.339302558633790  |grad|_K:  9.746e-05  alpha:  1.000e+00
	Linear fluid (dielectric constant: 78.4, screening length: 5.74355 Bohr) occupying 0.730970 of unit cell:	Completed after 23 iterations at t[s]:    118.18
[...]
	Linear fluid (dielectric constant: 78.4, screening length: 5.74355 Bohr) occupying 0.732301 of unit cell:	Completed after 2 iterations at t[s]:   2542.41
	Linear fluid (dielectric constant: 78.4, screening length: 5.74355 Bohr) occupying 0.732302 of unit cell:	Completed after 0 iterations at t[s]:   2559.19
ElecMinimize: 	Step increased G by 3.970945e-08, reducing alpha to 3.808056e-03.
	Linear fluid (dielectric constant: 78.4, screening length: 5.74355 Bohr) occupying 0.732302 of unit cell:	Completed after 2 iterations at t[s]:   2595.32
ElecMinimize: 	Step increased G by 1.120998e-07, reducing alpha to 3.808056e-04.
	Linear fluid (dielectric constant: 78.4, screening length: 5.74355 Bohr) occupying 0.732302 of unit cell:	Completed after 0 iterations at t[s]:   2630.99
ElecMinimize: 	Step increased G by 1.120625e-07, reducing alpha to 3.808056e-05.
ElecMinimize: 	Step failed to reduce G after 3 attempts. Quitting step.
ElecMinimize: 	Undoing step.
	Linear fluid (dielectric constant: 78.4, screening length: 5.74355 Bohr) occupying 0.732302 of unit cell:	Completed after 0 iterations at t[s]:   2666.63
ElecMinimize: 	Step failed: resetting search direction.
	FillingsUpdate:  mu: -0.244750400  nElectrons: 969.191040
	SubspaceRotationAdjust: set factor to 0.112
ElecMinimize: Iter:  38  G: -6446.523549767221994  |grad|_K:  3.965e-08  alpha:  3.808e-05
	Linear fluid (dielectric constant: 78.4, screening length: 5.74355 Bohr) occupying 0.732302 of unit cell:	Completed after 0 iterations at t[s]:   2708.97
	Linear fluid (dielectric constant: 78.4, screening length: 5.74355 Bohr) occupying 0.732302 of unit cell:	Completed after 0 iterations at t[s]:   2725.99
	FillingsUpdate:  mu: -0.244750400  nElectrons: 969.191687
	SubspaceRotationAdjust: set factor to 0.0978
ElecMinimize: Iter:  39  G: -6446.523549855371130  |grad|_K:  2.022e-08  alpha:  1.740e-01  linmin:  5.803e-07  t[s]:   2747.11
	Linear fluid (dielectric constant: 78.4, screening length: 5.74355 Bohr) occupying 0.732302 of unit cell:	Completed after 0 iterations at t[s]:   2768.88
ElecMinimize: 	Predicted alpha/alphaT>3.000000, increasing alphaT to 5.218692e-01.
	Linear fluid (dielectric constant: 78.4, screening length: 5.74355 Bohr) occupying 0.732301 of unit cell:	Completed after 0 iterations at t[s]:   2785.50
	Linear fluid (dielectric constant: 78.4, screening length: 5.74355 Bohr) occupying 0.732300 of unit cell:	Completed after 4 iterations at t[s]:   2802.84
ElecMinimize: 	Step increased G by 1.260081e-06, reducing alpha to 1.351343e-01.
	Linear fluid (dielectric constant: 78.4, screening length: 5.74355 Bohr) occupying 0.732302 of unit cell:	Completed after 2 iterations at t[s]:   2838.77
	FillingsUpdate:  mu: -0.244750400  nElectrons: 969.192362
	SubspaceRotationAdjust: set factor to 0.055
ElecMinimize: Iter:  40  G: -6446.523549939804980  |grad|_K:  4.797e-08  alpha:  1.351e-01  linmin:  6.734e-04  t[s]:   2859.72
ElecMinimize: 	Bad step direction: g.d > 0.
ElecMinimize: 	Undoing step.
	Linear fluid (dielectric constant: 78.4, screening length: 5.74355 Bohr) occupying 0.732302 of unit cell:	Completed after 0 iterations at t[s]:   2881.24
ElecMinimize: 	Step failed: resetting search direction.
	FillingsUpdate:  mu: -0.244750400  nElectrons: 969.192362
	SubspaceRotationAdjust: set factor to 0.0337
ElecMinimize: Iter:  41  G: -6446.523549939824079  |grad|_K:  3.751e-08  alpha:  0.000e+00
	Linear fluid (dielectric constant: 78.4, screening length: 5.74355 Bohr) occupying 0.732301 of unit cell:	Completed after 0 iterations at t[s]:   2923.27
	Linear fluid (dielectric constant: 78.4, screening length: 5.74355 Bohr) occupying 0.732301 of unit cell:	Completed after 0 iterations at t[s]:   2941.17
	FillingsUpdate:  mu: -0.244750400  nElectrons: 969.190635
	SubspaceRotationAdjust: set factor to 0.0219
ElecMinimize: Iter:  42  G: -6446.523550092811092  |grad|_K:  2.592e-08  alpha:  2.530e-01  linmin: -2.983e-03  t[s]:   2961.77
	Linear fluid (dielectric constant: 78.4, screening length: 5.74355 Bohr) occupying 0.732301 of unit cell:	Completed after 3 iterations at t[s]:   2984.24
	Linear fluid (dielectric constant: 78.4, screening length: 5.74355 Bohr) occupying 0.732301 of unit cell:	Completed after 0 iterations at t[s]:   3000.97
ElecMinimize: 	Step increased G by 1.607923e-07, reducing alpha to 4.449359e-03.
	Linear fluid (dielectric constant: 78.4, screening length: 5.74355 Bohr) occupying 0.732301 of unit cell:	Completed after 0 iterations at t[s]:   3036.85
ElecMinimize: 	Step increased G by 1.249828e-07, reducing alpha to 4.449359e-04.
	Linear fluid (dielectric constant: 78.4, screening length: 5.74355 Bohr) occupying 0.732301 of unit cell:	Completed after 0 iterations at t[s]:   3072.85
ElecMinimize: 	Step increased G by 1.213712e-07, reducing alpha to 4.449359e-05.
ElecMinimize: 	Step failed to reduce G after 3 attempts. Quitting step.
ElecMinimize: 	Undoing step.
	Linear fluid (dielectric constant: 78.4, screening length: 5.74355 Bohr) occupying 0.732301 of unit cell:	Completed after 0 iterations at t[s]:   3109.03
ElecMinimize: 	Step failed: resetting search direction.
	FillingsUpdate:  mu: -0.244750400  nElectrons: 969.190633
	SubspaceRotationAdjust: set factor to 0.0125
	SubspaceRotationAdjust: resetting CG because factor has changed by 0.108836
	Linear fluid (dielectric constant: 78.4, screening length: 5.74355 Bohr) occupying 0.732301 of unit cell:	Completed after 0 iterations at t[s]:   3136.30
ElecMinimize: 	State modified externally: resetting search direction.
ElecMinimize: Iter:  43  G: -6446.523549971416287  |grad|_K:  2.794e-08  alpha:  4.449e-05
	Linear fluid (dielectric constant: 78.4, screening length: 5.74355 Bohr) occupying 0.732301 of unit cell:	Completed after 1 iterations at t[s]:   3179.42
	Linear fluid (dielectric constant: 78.4, screening length: 5.74355 Bohr) occupying 0.732301 of unit cell:	Completed after 0 iterations at t[s]:   3196.15
ElecMinimize: 	Step increased G by 8.875577e-08, reducing alpha to 8.672140e-03.
	Linear fluid (dielectric constant: 78.4, screening length: 5.74355 Bohr) occupying 0.732301 of unit cell:	Completed after 0 iterations at t[s]:   3231.56
ElecMinimize: 	Step increased G by 1.077360e-07, reducing alpha to 8.672140e-04.
	Linear fluid (dielectric constant: 78.4, screening length: 5.74355 Bohr) occupying 0.732301 of unit cell:	Completed after 0 iterations at t[s]:   3267.40
ElecMinimize: 	Step increased G by 1.097533e-07, reducing alpha to 8.672140e-05.
ElecMinimize: 	Step failed to reduce G after 3 attempts. Quitting step.
ElecMinimize: 	Undoing step.
	Linear fluid (dielectric constant: 78.4, screening length: 5.74355 Bohr) occupying 0.732301 of unit cell:	Completed after 0 iterations at t[s]:   3303.63
ElecMinimize: 	Step failed along negative gradient direction.
ElecMinimize: Probably at roundoff error limit. (Stopping)
Setting wave functions to eigenvectors of Hamiltonian

# Ionic positions in lattice coordinates:
ion Ta  -0.000000005950000   0.203323882794756   0.478797375315049 0
ion Ta  -0.000000005950000   0.453323882794756   0.521202615484950 0
ion Ta   0.249999994050000   0.203323882794756   0.478797375315049 0
ion Ta   0.249999994050000   0.453323882794756   0.521202615484950 0
ion Ta   0.499999994050000   0.203323882794756   0.478797375315049 0
ion Ta   0.499999994050000   0.453323882794756   0.521202615484950 0
ion Ta   0.749999994050000   0.203323882794756   0.478797375315049 0
ion Ta   0.749999994050000   0.453323882794756   0.521202615484950 0
ion Ta  -0.000000005950000   0.703323882794757   0.478797375315049 0
ion Ta  -0.000000005950000   0.953323882794757   0.521202615484950 0
ion Ta   0.249999994050000   0.703323882794757   0.478797375315049 0
ion Ta   0.249999994050000   0.953323882794757   0.521202615484950 0
ion Ta   0.499999994050000   0.703323882794757   0.478797375315049 0
ion Ta   0.499999994050000   0.953323882794757   0.521202615484950 0
ion Ta   0.749999994050000   0.703323882794757   0.478797375315049 0
ion Ta   0.749999994050000   0.953323882794757   0.521202615484950 0
ion Ni   0.124999994050000   0.105575890418311   0.555873428480333 0
ion Ni   0.124999994050000   0.355575890418311   0.444126562319666 0
ion Ni   0.124999994050000   0.301142582909655   0.555883259431346 0
ion Ni   0.124999994050000   0.051142582909655   0.444116731368653 0
ion Ni   0.374999994050000   0.105575890418311   0.555873428480333 0
ion Ni   0.374999994050000   0.355575890418311   0.444126562319666 0
ion Ni   0.374999994050000   0.301142582909655   0.555883259431346 0
ion Ni   0.374999994050000   0.051142582909655   0.444116731368653 0
ion Ni   0.624999994050000   0.105575890418311   0.555873428480333 0
ion Ni   0.624999994050000   0.355575890418311   0.444126562319666 0
ion Ni   0.624999994050000   0.301142582909655   0.555883259431346 0
ion Ni   0.624999994050000   0.051142582909655   0.444116731368653 0
ion Ni   0.874999994050000   0.105575890418311   0.555873428480333 0
ion Ni   0.874999994050000   0.355575890418311   0.444126562319666 0
ion Ni   0.874999994050000   0.301142582909655   0.555883259431346 0
ion Ni   0.874999994050000   0.051142582909655   0.444116731368653 0
ion Ni   0.124999994050000   0.605575890418311   0.555873428480333 0
ion Ni   0.124999994050000   0.855575890418311   0.444126562319666 0
ion Ni   0.124999994050000   0.801142582909655   0.555883259431346 0
ion Ni   0.124999994050000   0.551142582909655   0.444116731368653 0
ion Ni   0.374999994050000   0.605575890418311   0.555873428480333 0
ion Ni   0.374999994050000   0.855575890418311   0.444126562319666 0
ion Ni   0.374999994050000   0.801142582909655   0.555883259431346 0
ion Ni   0.374999994050000   0.551142582909655   0.444116731368653 0
ion Ni   0.624999994050000   0.605575890418311   0.555873428480333 0
ion Ni   0.624999994050000   0.855575890418311   0.444126562319666 0
ion Ni   0.624999994050000   0.801142582909655   0.555883259431346 0
ion Ni   0.624999994050000   0.551142582909655   0.444116731368653 0
ion Ni   0.874999994050000   0.605575890418311   0.555873428480333 0
ion Ni   0.874999994050000   0.855575890418311   0.444126562319666 0
ion Ni   0.874999994050000   0.801142582909655   0.555883259431346 0
ion Ni   0.874999994050000   0.551142582909655   0.444116731368653 0
ion Te   0.124999994050000   0.453322878917926   0.633572370315355 0
ion Te   0.124999994050000   0.203322878917926   0.366427620484644 0
ion Te  -0.000000005950000   0.453269813709361   0.376950770048916 0
ion Te  -0.000000005950000   0.203269813709361   0.623049220751083 0
ion Te   0.374999994050000   0.453322878917926   0.633572370315355 0
ion Te   0.374999994050000   0.203322878917926   0.366427620484644 0
ion Te   0.249999994050000   0.453269813709361   0.376950770048916 0
ion Te   0.249999994050000   0.203269813709361   0.623049220751083 0
ion Te   0.624999994050000   0.453322878917926   0.633572370315355 0
ion Te   0.624999994050000   0.203322878917926   0.366427620484644 0
ion Te   0.499999994050000   0.453269813709361   0.376950770048916 0
ion Te   0.499999994050000   0.203269813709361   0.623049220751083 0
ion Te   0.874999994050000   0.453322878917926   0.633572370315355 0
ion Te   0.874999994050000   0.203322878917926   0.366427620484644 0
ion Te   0.749999994050000   0.453269813709361   0.376950770048916 0
ion Te   0.749999994050000   0.203269813709361   0.623049220751083 0
ion Te   0.124999994050000   0.953322878917926   0.633572370315355 0
ion Te   0.124999994050000   0.703322878917926   0.366427620484644 0
ion Te  -0.000000005950000   0.953269813709361   0.376950770048916 0
ion Te  -0.000000005950000   0.703269813709361   0.623049220751083 0
ion Te   0.374999994050000   0.953322878917926   0.633572370315355 0
ion Te   0.374999994050000   0.703322878917926   0.366427620484644 0
ion Te   0.249999994050000   0.953269813709361   0.376950770048916 0
ion Te   0.249999994050000   0.703269813709361   0.623049220751083 0
ion Te   0.624999994050000   0.953322878917926   0.633572370315355 0
ion Te   0.624999994050000   0.703322878917926   0.366427620484644 0
ion Te   0.499999994050000   0.953269813709361   0.376950770048916 0
ion Te   0.499999994050000   0.703269813709361   0.623049220751083 0
ion Te   0.874999994050000   0.953322878917926   0.633572370315355 0
ion Te   0.874999994050000   0.703322878917926   0.366427620484644 0
ion Te   0.749999994050000   0.953269813709361   0.376950770048916 0
ion Te   0.749999994050000   0.703269813709361   0.623049220751083 0


# Forces in Lattice coordinates:
force Ta  -0.000000000000000   0.003965080982368  -0.078958397713136 0
force Ta  -0.000000000000000   0.003965080982368   0.078958397712909 0
force Ta   0.000000000000000   0.003965080982368  -0.078958397712795 0
force Ta   0.000000000000000   0.003965080982368   0.078958397712909 0
force Ta   0.000000000000000   0.003965080982368  -0.078958397713023 0
force Ta  -0.000000000000000   0.003965080982368   0.078958397713023 0
force Ta   0.000000000000000   0.003965080982368  -0.078958397713023 0
force Ta   0.000000000000000   0.003965080982368   0.078958397713023 0
force Ta   0.000000000000000   0.003965080982368  -0.078958397712909 0
force Ta  -0.000000000000000   0.003965080982368   0.078958397713136 0
force Ta   0.000000000000000   0.003965080982368  -0.078958397712909 0
force Ta  -0.000000000000000   0.003965080982368   0.078958397712909 0
force Ta   0.000000000000000   0.003965080982368  -0.078958397713023 0
force Ta  -0.000000000000000   0.003965080982368   0.078958397713136 0
force Ta  -0.000000000000000   0.003965080982368  -0.078958397713137 0
force Ta   0.000000000000000   0.003965080982368   0.078958397713136 0
force Ni  -0.000000000000000  -0.008188299720528  -0.032355160450418 0
force Ni  -0.000000000000000  -0.008188299720514   0.032355160450873 0
force Ni  -0.000000000000000  -0.052269218429274  -0.034164679662691 0
force Ni   0.000000000000000  -0.052269218429260   0.034164679663601 0
force Ni   0.000000000000000  -0.008188299720514  -0.032355160450419 0
force Ni   0.000000000000000  -0.008188299720542   0.032355160451328 0
force Ni  -0.000000000000000  -0.052269218429245  -0.034164679662690 0
force Ni  -0.000000000000000  -0.052269218429274   0.034164679663145 0
force Ni  -0.000000000000000  -0.008188299720514  -0.032355160450873 0
force Ni  -0.000000000000000  -0.008188299720514   0.032355160451327 0
force Ni   0.000000000000000  -0.052269218429288  -0.034164679662237 0
force Ni   0.000000000000000  -0.052269218429260   0.034164679663601 0
force Ni  -0.000000000000000  -0.008188299720528  -0.032355160450418 0
force Ni  -0.000000000000000  -0.008188299720528   0.032355160451328 0
force Ni   0.000000000000000  -0.052269218429260  -0.034164679662236 0
force Ni  -0.000000000000000  -0.052269218429288   0.034164679663148 0
force Ni  -0.000000000000000  -0.008188299720514  -0.032355160450419 0
force Ni  -0.000000000000000  -0.008188299720542   0.032355160450419 0
force Ni   0.000000000000000  -0.052269218429288  -0.034164679662691 0
force Ni   0.000000000000000  -0.052269218429288   0.034164679663601 0
force Ni   0.000000000000000  -0.008188299720500  -0.032355160450420 0
force Ni   0.000000000000000  -0.008188299720500   0.032355160450873 0
force Ni   0.000000000000000  -0.052269218429260  -0.034164679662692 0
force Ni   0.000000000000000  -0.052269218429260   0.034164679663601 0
force Ni   0.000000000000000  -0.008188299720500  -0.032355160450874 0
force Ni   0.000000000000000  -0.008188299720528   0.032355160450418 0
force Ni   0.000000000000000  -0.052269218429260  -0.034164679662690 0
force Ni  -0.000000000000000  -0.052269218429288   0.034164679663146 0
force Ni   0.000000000000000  -0.008188299720528  -0.032355160451329 0
force Ni   0.000000000000000  -0.008188299720514   0.032355160451327 0
force Ni  -0.000000000000000  -0.052269218429288  -0.034164679662691 0
force Ni  -0.000000000000000  -0.052269218429274   0.034164679663146 0
force Te   0.000000000000000   0.001233131995745   0.409885904351339 0
force Te   0.000000000000000   0.001233131995745  -0.409885904350884 0
force Te   0.000000000000000   0.002499283437347  -0.343466315757174 0
force Te  -0.000000000000000   0.002499283437347   0.343466315757174 0
force Te   0.000000000000000   0.001233131995745   0.409885904351112 0
force Te   0.000000000000000   0.001233131995745  -0.409885904350657 0
force Te   0.000000000000000   0.002499283437347  -0.343466315756946 0
force Te   0.000000000000000   0.002499283437347   0.343466315757401 0
force Te  -0.000000000000000   0.001233131995745   0.409885904351112 0
force Te  -0.000000000000000   0.001233131995745  -0.409885904350884 0
force Te  -0.000000000000000   0.002499283437347  -0.343466315756947 0
force Te   0.000000000000000   0.002499283437347   0.343466315757629 0
force Te   0.000000000000000   0.001233131995745   0.409885904351112 0
force Te   0.000000000000000   0.001233131995745  -0.409885904350657 0
force Te   0.000000000000000   0.002499283437347  -0.343466315756947 0
force Te   0.000000000000000   0.002499283437347   0.343466315757401 0
force Te   0.000000000000000   0.001233131995745   0.409885904350885 0
force Te   0.000000000000000   0.001233131995745  -0.409885904351339 0
force Te   0.000000000000000   0.002499283437347  -0.343466315757402 0
force Te   0.000000000000000   0.002499283437347   0.343466315756947 0
force Te   0.000000000000000   0.001233131995745   0.409885904350884 0
force Te   0.000000000000000   0.001233131995745  -0.409885904351111 0
force Te  -0.000000000000000   0.002499283437347  -0.343466315757174 0
force Te  -0.000000000000000   0.002499283437347   0.343466315756946 0
force Te  -0.000000000000000   0.001233131995745   0.409885904350884 0
force Te  -0.000000000000000   0.001233131995745  -0.409885904351339 0
force Te  -0.000000000000000   0.002499283437347  -0.343466315757401 0
force Te  -0.000000000000000   0.002499283437347   0.343466315756947 0
force Te   0.000000000000000   0.001233131995745   0.409885904351112 0
force Te   0.000000000000000   0.001233131995745  -0.409885904350884 0
force Te   0.000000000000000   0.002499283437347  -0.343466315757174 0
force Te  -0.000000000000000   0.002499283437347   0.343466315756947 0

# Energy components:
   A_diel =       -0.5737824297314182
   Eewald =    41761.4431508662091801
       EH =    47217.0587828821662697
     Eloc =   -96468.6392608614260098
      Enl =      432.6882884459491834
      Exc =    -1137.5602814551818938
 Exc_core =      367.4065524177970019
       KE =     1144.4481346842926541
  MuShift =        0.1318073735107725
-------------------------------------
     Etot =    -6683.5966080764137587
       TS =        0.1367371887567297
-------------------------------------
        F =    -6683.7333452651701009
      muN =     -237.2097954035608609
-------------------------------------
        G =    -6446.5235498616093537

IonicMinimize: Iter:   0  G: -6446.523549861609354  |grad|_K:  0.000e+00  t[s]:   3339.47
IonicMinimize: Converged (|grad|_K<1.000000e-04).

#--- Lowdin population analysis ---
# oxidation-state Ta -0.268 -0.268 -0.268 -0.268 -0.268 -0.268 -0.268 -0.268 -0.268 -0.268 -0.268 -0.268 -0.268 -0.268 -0.268 -0.268
# oxidation-state Ni -0.446 -0.446 -0.446 -0.446 -0.446 -0.446 -0.446 -0.446 -0.446 -0.446 -0.446 -0.446 -0.446 -0.446 -0.446 -0.446 -0.446 -0.446 -0.446 -0.446 -0.446 -0.446 -0.446 -0.446 -0.446 -0.446 -0.446 -0.446 -0.446 -0.446 -0.446 -0.446
# oxidation-state Te +0.827 +0.827 +1.010 +1.010 +0.827 +0.827 +1.010 +1.010 +0.827 +0.827 +1.010 +1.010 +0.827 +0.827 +1.010 +1.010 +0.827 +0.827 +1.010 +1.010 +0.827 +0.827 +1.010 +1.010 +0.827 +0.827 +1.010 +1.010 +0.827 +0.827 +1.010 +1.010


Dumping 'NbTe2.fillings' ... done
Dumping 'NbTe2.wfns' ... done
Dumping 'NbTe2.fluidState' ... done
Dumping 'NbTe2.eigenvals' ... done
End date and time: Thu Jul 16 20:33:42 2020  (Duration: 0-0:55:59.04)
Done!
