
*************** JDFTx 1.5.0  ***************

Start date and time: Fri Sep 25 01:38:23 2020
Executable jdftx_gpu with command-line: -i Charged.in -o Charged.out
Running on hosts (process indices):  amax (0-6)
Divided in process groups (process indices):  0 (0)  1 (1)  2 (2)  3 (3)  4 (4)  5 (5)  6 (6)
gpuInit: Found compatible cuda device 0 'Tesla K80'
gpuInit: Found compatible cuda device 1 'Tesla K80'
gpuInit: Found compatible cuda device 2 'Tesla K80'
gpuInit: Found compatible cuda device 3 'Tesla K80'
gpuInit: Found compatible cuda device 4 'Tesla K80'
gpuInit: Found compatible cuda device 5 'Tesla K80'
gpuInit: Found compatible cuda device 6 'Tesla K80'
gpuInit: Selected device 0
Resource initialization completed at t[s]:     12.37
Run totals: 7 processes, 24 threads, 7 GPUs


Input parsed successfully to the following command list (including defaults):

basis kpoint-dependent
cache-projectors no
coords-type Lattice
core-overlap-check none
coulomb-interaction Slab 001
coulomb-truncation-embed 0 0 0.5
davidson-band-ratio 1.1
dump End State
dump-name NbTe2.$VAR
elec-cutoff 20 100
elec-eigen-algo Davidson
elec-ex-corr gga-PBE
elec-initial-magnetization 5.000000 no
elec-smearing Gauss 0.0073499
electronic-minimize  \
	dirUpdateScheme      FletcherReeves \
	linminMethod         DirUpdateRecommended \
	nIterations          500 \
	history              15 \
	knormThreshold       0 \
	energyDiffThreshold  1e-08 \
	nEnergyDiff          2 \
	alphaTstart          1 \
	alphaTmin            1e-10 \
	updateTestStepSize   yes \
	alphaTreduceFactor   0.1 \
	alphaTincreaseFactor 3 \
	nAlphaAdjustMax      3 \
	wolfeEnergy          0.0001 \
	wolfeGradient        0.9 \
	fdTest               no
exchange-regularization WignerSeitzTruncated
fluid LinearPCM 298.000000 1.013250
fluid-anion F- 1 MeanFieldLJ \
	epsBulk 1 \
	pMol 0 \
	epsInf 1 \
	Pvap 0 \
	sigmaBulk 0 \
	Rvdw 2.24877 \
	Res 0 \
	tauNuc 343133
fluid-cation Na+ 1 MeanFieldLJ \
	epsBulk 1 \
	pMol 0 \
	epsInf 1 \
	Pvap 0 \
	sigmaBulk 0 \
	Rvdw 2.19208 \
	Res 0 \
	tauNuc 343133
fluid-ex-corr lda-TF lda-PZ
fluid-gummel-loop 10 1.000000e-05
fluid-minimize  \
	dirUpdateScheme      PolakRibiere \
	linminMethod         DirUpdateRecommended \
	nIterations          400 \
	history              15 \
	knormThreshold       1e-11 \
	energyDiffThreshold  0 \
	nEnergyDiff          2 \
	alphaTstart          1 \
	alphaTmin            1e-10 \
	updateTestStepSize   yes \
	alphaTreduceFactor   0.1 \
	alphaTincreaseFactor 3 \
	nAlphaAdjustMax      6 \
	wolfeEnergy          0.0001 \
	wolfeGradient        0.9 \
	fdTest               no
fluid-solvent H2O 55.338 ScalarEOS \
	epsBulk 78.4 \
	pMol 0.92466 \
	epsInf 1.77 \
	Pvap 1.06736e-10 \
	sigmaBulk 4.62e-05 \
	Rvdw 2.61727 \
	Res 1.42 \
	tauNuc 343133 \
	poleEl 15 7 1
forces-output-coords Positions
initial-state NbTe2.$VAR
ion Ta   0.169633374701797   0.086477313074728   0.501226765357329 1
ion Ta   0.416864229338630   0.086490722839662   0.501208744520278 1
ion Ta   0.668662777770051   0.086855494635700   0.501475868162552 1
ion Ta   0.918195390781421   0.086848456360382   0.501491944121780 1
ion Ta   0.167687429141498   0.336370765940808   0.501039927698472 1
ion Ta   0.413579787044830   0.327146506699697   0.500261968202349 1
ion Ta   0.668682686391425   0.336371160413535   0.501054805456058 1
ion Ta   0.918183143184445   0.336356239854205   0.501452048986939 1
ion Ta   0.169596319044164   0.588196836926334   0.501026725610818 1
ion Ta   0.413539268289999   0.591538998902413   0.500061575547667 1
ion Ta   0.677972218568366   0.591521277337416   0.500114796037717 1
ion Ta   0.918578012282596   0.588185238267173   0.501065206895869 1
ion Ta   0.168337105965882   0.836689244511977   0.501087560497606 1
ion Ta   0.416845264257275   0.835451039320594   0.501051087572565 1
ion Ta   0.668686257036271   0.837393174104871   0.500944674533342 1
ion Ta   0.918588208507159   0.835422783767902   0.501112892890901 1
ion S   0.001939795243655   0.003025326502831   0.587131579583439 1
ion S   0.001856724637993   0.003314206079078   0.415466137186367 1
ion S   0.251336592311446   0.002636267740459   0.587965272479836 1
ion S   0.251425389631561   0.002853371808710   0.414379711342101 1
ion S   0.501092671064963   0.003016241098712   0.587098983508382 1
ion S   0.501491034362634   0.003362853122913   0.415426156898094 1
ion S   0.751592101132303   0.003190257115941   0.587823143834933 1
ion S   0.752063511749805   0.004100767894118   0.414910623501248 1
ion S   0.001825832422385   0.253445365721793   0.587849890909803 1
ion S   0.001040138931431   0.253009536793542   0.414942096376151 1
ion S   0.251036394790108   0.253399202281759   0.587914118466564 1
ion S   0.249380359721654   0.252370981619752   0.413890598469766 1
ion S   0.502361147872494   0.253389551268440   0.587917759352638 1
ion S   0.503016078510675   0.252392254990664   0.413885248824863 1
ion S   0.751635261683080   0.253437490211959   0.587848743221267 1
ion S   0.751986641169504   0.253033467692863   0.414943403529275 1
ion S   0.002001074177277   0.503971778501046   0.587026196892966 1
ion S   0.001726805638503   0.503498727596968   0.415355027192367 1
ion S   0.251057822994572   0.502824849867629   0.587761842832873 1
ion S   0.249283074589333   0.501941845954238   0.413734837376473 1
ion S   0.501746403963530   0.503610826446064   0.579242617106801 1
ion S   0.501670673777956   0.503322645170212   0.421589718371424 1
ion S   0.751747882778926   0.502801186844855   0.587805668672819 1
ion S   0.752647788284056   0.501958986507373   0.413773596470621 1
ion S   0.002333157068207   0.753650890571748   0.587871105328830 1
ion S   0.002285086458887   0.753681847124900   0.414275283813372 1
ion S   0.251351812753288   0.753660122871531   0.587828212693408 1
ion S   0.251369265771037   0.753699703010733   0.414239374055609 1
ion S   0.502310392319528   0.754043737166907   0.587731202908661 1
ion S   0.503051779283186   0.755756053343690   0.413704814401138 1
ion S   0.751689151136243   0.754041834511905   0.587772764149773 1
ion S   0.752704035319405   0.755731067928866   0.413752900747343 1
ion O   0.501832707144553   0.503961538680391   0.663684384408645 1
ion-species GBRV/$ID_pbe.uspp
ion-width Ecut
ionic-minimize  \
	dirUpdateScheme      L-BFGS \
	linminMethod         DirUpdateRecommended \
	nIterations          500 \
	history              15 \
	knormThreshold       0.0001 \
	energyDiffThreshold  1e-06 \
	nEnergyDiff          2 \
	alphaTstart          1 \
	alphaTmin            1e-10 \
	updateTestStepSize   yes \
	alphaTreduceFactor   0.1 \
	alphaTincreaseFactor 3 \
	nAlphaAdjustMax      3 \
	wolfeEnergy          0.0001 \
	wolfeGradient        0.9 \
	fdTest               no
kpoint   0.000000000000   0.000000000000   0.000000000000  1.00000000000000
kpoint-folding 3 3 1 
latt-move-scale 1 1 1
latt-scale 1 1 1 
lattice Triclinic 25.1736 25.1736 34.2617 90 90 120
lattice-minimize  \
	dirUpdateScheme      L-BFGS \
	linminMethod         DirUpdateRecommended \
	nIterations          0 \
	history              15 \
	knormThreshold       0 \
	energyDiffThreshold  1e-06 \
	nEnergyDiff          2 \
	alphaTstart          1 \
	alphaTmin            1e-10 \
	updateTestStepSize   yes \
	alphaTreduceFactor   0.1 \
	alphaTincreaseFactor 3 \
	nAlphaAdjustMax      3 \
	wolfeEnergy          0.0001 \
	wolfeGradient        0.9 \
	fdTest               no
lcao-params -1 1e-06 0.0073499
pcm-variant CANDLE
spintype z-spin
subspace-rotation-factor 1 yes
symmetries automatic
symmetry-threshold 0.0001
target-mu -0.171252 no




---------- Setting up symmetries ----------

Found 24 point-group symmetries of the bravais lattice
Found 1 space-group symmetries with basis
Applied RMS atom displacement 0 bohrs to make symmetries exact.

---------- Initializing the Grid ----------
R = 
[    25.1736   -12.5868          0  ]
[          0     21.801          0  ]
[          0          0    34.2617  ]
unit cell volume = 18803.1
G =
[   0.249594   0.144103         -0  ]
[          0   0.288207          0  ]
[          0         -0   0.183388  ]
Minimum fftbox size, Smin = [  116  116  156  ]
Chosen fftbox size, S = [  120  120  160  ]

---------- Initializing tighter grid for wavefunction operations ----------
R = 
[    25.1736   -12.5868          0  ]
[          0     21.801          0  ]
[          0          0    34.2617  ]
unit cell volume = 18803.1
G =
[   0.249594   0.144103         -0  ]
[          0   0.288207          0  ]
[          0         -0   0.183388  ]
Minimum fftbox size, Smin = [  104  104  140  ]
Chosen fftbox size, S = [  108  108  140  ]

---------- Exchange Correlation functional ----------
Initalized PBE GGA exchange.
Initalized PBE GGA correlation.

---------- Setting up pseudopotentials ----------
Width of ionic core gaussian charges (only for fluid interactions / plotting) set to 0.397384

Reading pseudopotential file '/home/guoxy/vasp/jdftx-1.5.0/build/pseudopotentials/GBRV/ta_pbe.uspp':
  Title: Ta.  Created by USPP 7.3.6 on 14-9-2013
  Reference state energy: -70.583193.  13 valence electrons in orbitals:
    |500>  occupation: 2  eigenvalue: -2.682396
    |510>  occupation: 6  eigenvalue: -1.447928
    |520>  occupation: 3  eigenvalue: -0.131987
    |600>  occupation: 2  eigenvalue: -0.199982
    |610>  occupation: 0  eigenvalue: -0.051129
  lMax: 3  lLocal: 3  QijEcut: 5
  7 projectors sampled on a log grid with 667 points:
    l: 0  eig: -2.682397  rCut: 1.4
    l: 0  eig: -0.199983  rCut: 1.4
    l: 1  eig: -1.447928  rCut: 1.5
    l: 1  eig: -0.051130  rCut: 1.5
    l: 2  eig: -0.131987  rCut: 1.7
    l: 2  eig: 0.150000  rCut: 1.7
    l: 3  eig: 0.250000  rCut: 2.3
  Partial core density with radius 1.2
  Transforming core density to a uniform radial grid of dG=0.02 with 1673 points.
  Transforming local potential to a uniform radial grid of dG=0.02 with 1673 points.
  Transforming nonlocal projectors to a uniform radial grid of dG=0.02 with 432 points.
  Transforming density augmentations to a uniform radial grid of dG=0.02 with 1673 points.
  Transforming atomic orbitals to a uniform radial grid of dG=0.02 with 432 points.
  Core radius for overlap checks: 2.30 bohrs.

Reading pseudopotential file '/home/guoxy/vasp/jdftx-1.5.0/build/pseudopotentials/GBRV/s_pbe.uspp':
  Title: S.  Created by USPP 7.3.6 on 1-4-15
  Reference state energy: -11.898476.  6 valence electrons in orbitals:
    |300>  occupation: 2  eigenvalue: -0.634167
    |310>  occupation: 4  eigenvalue: -0.257568
  lMax: 2  lLocal: 3  QijEcut: 6
  6 projectors sampled on a log grid with 635 points:
    l: 0  eig: -0.634161  rCut: 1.5
    l: 0  eig: 1.500000  rCut: 1.5
    l: 1  eig: -0.257567  rCut: 1.5
    l: 1  eig: 1.500000  rCut: 1.5
    l: 2  eig: -1.000000  rCut: 1.5
    l: 2  eig: 1.500000  rCut: 1.5
  Partial core density with radius 1.15
  Transforming core density to a uniform radial grid of dG=0.02 with 1673 points.
  Transforming local potential to a uniform radial grid of dG=0.02 with 1673 points.
  Transforming nonlocal projectors to a uniform radial grid of dG=0.02 with 432 points.
  Transforming density augmentations to a uniform radial grid of dG=0.02 with 1673 points.
  Transforming atomic orbitals to a uniform radial grid of dG=0.02 with 432 points.
  Core radius for overlap checks: 1.50 bohrs.

Reading pseudopotential file '/home/guoxy/vasp/jdftx-1.5.0/build/pseudopotentials/GBRV/o_pbe.uspp':
  Title: O.  Created by USPP 7.3.6 on 3-2-2014
  Reference state energy: -15.894388.  6 valence electrons in orbitals:
    |200>  occupation: 2  eigenvalue: -0.878823
    |210>  occupation: 4  eigenvalue: -0.332131
  lMax: 2  lLocal: 2  QijEcut: 6
  5 projectors sampled on a log grid with 511 points:
    l: 0  eig: -0.878823  rCut: 1.25
    l: 0  eig: 0.000000  rCut: 1.25
    l: 1  eig: -0.332132  rCut: 1.25
    l: 1  eig: 0.000000  rCut: 1.25
    l: 2  eig: 1.000000  rCut: 1.25
  Partial core density with radius 0.7
  Transforming core density to a uniform radial grid of dG=0.02 with 1673 points.
  Transforming local potential to a uniform radial grid of dG=0.02 with 1673 points.
  Transforming nonlocal projectors to a uniform radial grid of dG=0.02 with 432 points.
  Transforming density augmentations to a uniform radial grid of dG=0.02 with 1673 points.
  Transforming atomic orbitals to a uniform radial grid of dG=0.02 with 432 points.
  Core radius for overlap checks: 1.25 bohrs.

Initialized 3 species with 49 total atoms.

Folded 1 k-points by 3x3x1 to 9 k-points.

---------- Setting up k-points, bands, fillings ----------
Adding inversion symmetry to k-mesh for non-inversion-symmetric unit cell.
Reduced to 5 k-points under symmetry. 
Computing the number of bands and number of electrons
Calculating initial fillings.
nElectrons: 406.000000   nBands: 340   nStates: 10

----- Setting up reduced wavefunction bases (one per k-point) -----
average nbasis = 80341.667 , ideal nbasis = 80328.402

---------- Setting up coulomb interaction ----------
Fluid mode embedding: using embedded box, but periodic Coulomb kernel.
(Fluid response is responsible for (approximate) separation between periodic images.)
Setting up double-sized grid for truncated Coulomb potentials:
R = 
[    25.1736   -12.5868          0  ]
[          0     21.801          0  ]
[          0          0    68.5234  ]
unit cell volume = 37606.3
G =
[   0.249594   0.144103         -0  ]
[          0   0.288207          0  ]
[          0         -0  0.0916941  ]
Chosen fftbox size, S = [  120  120  320  ]
Integer grid location selected as the embedding center:
   Grid: [  0  0  80  ]
   Lattice: [  0  0  0.5  ]
   Cartesian: [  0  0  17.1308  ]
Constructing Wigner-Seitz cell: 8 faces (6 quadrilaterals, 2 hexagons)
Range-separation parameter for embedded mesh potentials due to point charges: 0.583787 bohrs.

Initializing van der Waals corrections
	NOTE: vdW corrections apply only for interactions with fluid.
	Ta:  C6:  815.23 Eh-a0^6  R0: 3.326 a0 (WARNING: beyond Grimme's data set)
	 S:  C6:   96.61 Eh-a0^6  R0: 3.180 a0
	 O:  C6:   12.14 Eh-a0^6  R0: 2.536 a0

---------- Setting up ewald sum ----------
Optimum gaussian width for ewald sums = 6.987108 bohr.
Real space sum over 605 unit cells with max indices [  5  5  2  ]
Reciprocal space sum over 7425 terms with max indices [  7  7  16  ]

---------- Allocating electronic variables ----------
Initializing wave functions:  linear combination of atomic orbitals
Ta pseudo-atom occupations:   s ( 2 2 )  p ( 6 0 )  d ( 3 )
S pseudo-atom occupations:   s ( 2 )  p ( 4 )
O pseudo-atom occupations:   s ( 2 )  p ( 4 )
	FillingsUpdate:  mu: -0.171251800  nElectrons: 406.000000  magneticMoment: [ Abs: 1.47148  Tot: +1.28868 ]
LCAOMinimize: Iter:   0  G: -1147.6465972534376760  |grad|_K:  2.694e-02  alpha:  1.000e+00
	FillingsUpdate:  mu: -0.171251800  nElectrons: 406.000000  magneticMoment: [ Abs: 0.80718  Tot: +0.66883 ]
LCAOMinimize: Iter:   1  G: -1152.6144700632223703  |grad|_K:  2.393e-02  alpha:  3.644e-01  linmin:  8.206e-02  cgtest: -1.150e+00  t[s]:    132.27
	FillingsUpdate:  mu: -0.171251800  nElectrons: 406.000000  magneticMoment: [ Abs: 0.40882  Tot: +0.32499 ]
LCAOMinimize: Iter:   2  G: -1164.9566289828906065  |grad|_K:  1.226e-02  alpha:  1.565e-01  linmin:  7.454e-02  cgtest:  4.711e-01  t[s]:    169.54
LCAOMinimize: 	Predicted alpha/alphaT>3.000000, increasing alphaT to 4.693659e-01.
	FillingsUpdate:  mu: -0.171251800  nElectrons: 406.000000  magneticMoment: [ Abs: 0.72455  Tot: +0.69184 ]
LCAOMinimize: Iter:   3  G: -1190.2178425455435899  |grad|_K:  8.558e-03  alpha:  1.585e-01  linmin: -2.073e-01  cgtest:  8.279e-01  t[s]:    220.13
LCAOMinimize: Encountered beta<0, resetting CG.
LCAOMinimize: 	Predicted alpha/alphaT>3.000000, increasing alphaT to 4.754076e-01.
	FillingsUpdate:  mu: -0.171251800  nElectrons: 406.000000  magneticMoment: [ Abs: 0.86880  Tot: +0.83502 ]
LCAOMinimize: Iter:   4  G: -1199.2783702211952459  |grad|_K:  7.449e-03  alpha:  1.110e-01  linmin: -2.601e-01  cgtest:  7.092e-01  t[s]:    270.49
LCAOMinimize: 	Wrong curvature in test step, increasing alphaT to 3.331152e-01.
	FillingsUpdate:  mu: -0.171251800  nElectrons: 406.000000  magneticMoment: [ Abs: 0.95056  Tot: +0.90736 ]
LCAOMinimize: Iter:   5  G: -1208.0800800652457383  |grad|_K:  5.932e-03  alpha: -1.134e+00  linmin: -3.415e-01  cgtest:  7.261e-01  t[s]:    306.95
	FillingsUpdate:  mu: -0.171251800  nElectrons: 406.000000  magneticMoment: [ Abs: 0.91555  Tot: +0.86728 ]
LCAOMinimize: Iter:   6  G: -1212.4937103511304031  |grad|_K:  3.681e-03  alpha:  1.101e-01  linmin: -2.512e-01  cgtest:  7.008e-01  t[s]:    345.55
LCAOMinimize: Encountered beta<0, resetting CG.
	FillingsUpdate:  mu: -0.171251800  nElectrons: 406.000000  magneticMoment: [ Abs: 0.72998  Tot: +0.67776 ]
LCAOMinimize: Iter:   7  G: -1214.0996562152499791  |grad|_K:  3.080e-03  alpha:  2.530e-01  linmin:  1.156e-01  cgtest: -4.690e-01  t[s]:    383.77
	FillingsUpdate:  mu: -0.171251800  nElectrons: 406.000000  magneticMoment: [ Abs: 0.72287  Tot: +0.67163 ]
LCAOMinimize: Iter:   8  G: -1214.1158492552915504  |grad|_K:  3.061e-03  alpha:  6.586e-03  linmin: -1.995e-02  cgtest:  9.888e-01  t[s]:    419.95
LCAOMinimize: 	Predicted alpha/alphaT>3.000000, increasing alphaT to 1.975902e-02.
LCAOMinimize: 	Predicted alpha/alphaT>3.000000, increasing alphaT to 5.927707e-02.
	FillingsUpdate:  mu: -0.171251800  nElectrons: 406.000000  magneticMoment: [ Abs: 0.74722  Tot: +0.70269 ]
LCAOMinimize: Iter:   9  G: -1214.5517852934672192  |grad|_K:  1.031e-03  alpha:  8.206e-02  linmin:  5.463e-02  cgtest: -6.666e-02  t[s]:    484.69
	FillingsUpdate:  mu: -0.171251800  nElectrons: 406.000000  magneticMoment: [ Abs: 0.68686  Tot: +0.64189 ]
LCAOMinimize: Iter:  10  G: -1214.5970903859063128  |grad|_K:  1.424e-03  alpha:  1.611e-01  linmin:  2.037e-01  cgtest: -2.946e-01  t[s]:    521.90
LCAOMinimize: 	Bad step direction: g.d > 0.
LCAOMinimize: 	Undoing step.
LCAOMinimize: 	Step failed: resetting search direction.
	FillingsUpdate:  mu: -0.171251800  nElectrons: 406.000000  magneticMoment: [ Abs: 0.68686  Tot: +0.64189 ]
LCAOMinimize: Iter:  11  G: -1214.5970903859063128  |grad|_K:  1.424e-03  alpha:  0.000e+00
	FillingsUpdate:  mu: -0.171251800  nElectrons: 406.000000  magneticMoment: [ Abs: 0.68177  Tot: +0.63902 ]
LCAOMinimize: Iter:  12  G: -1214.6328963521991682  |grad|_K:  5.795e-04  alpha:  7.374e-02  linmin:  2.460e-01  cgtest: -1.143e+00  t[s]:    583.04
	FillingsUpdate:  mu: -0.171251800  nElectrons: 406.000000  magneticMoment: [ Abs: 0.66751  Tot: +0.62548 ]
LCAOMinimize: Iter:  13  G: -1214.6336240632401768  |grad|_K:  5.767e-04  alpha:  3.349e-02  linmin:  3.373e-03  cgtest:  9.998e-01  t[s]:    622.83
LCAOMinimize: Encountered beta<0, resetting CG.
	FillingsUpdate:  mu: -0.171251800  nElectrons: 406.000000  magneticMoment: [ Abs: 0.63268  Tot: +0.59091 ]
LCAOMinimize: Iter:  14  G: -1214.6400871453649870  |grad|_K:  6.138e-04  alpha:  9.870e-02  linmin:  3.415e-01  cgtest: -7.429e-01  t[s]:    662.73
LCAOMinimize: 	Bad step direction: g.d > 0.
LCAOMinimize: 	Undoing step.
LCAOMinimize: 	Step failed: resetting search direction.
	FillingsUpdate:  mu: -0.171251800  nElectrons: 406.000000  magneticMoment: [ Abs: 0.63268  Tot: +0.59091 ]
LCAOMinimize: Iter:  15  G: -1214.6400871453649870  |grad|_K:  6.138e-04  alpha:  0.000e+00
	FillingsUpdate:  mu: -0.171251800  nElectrons: 406.000000  magneticMoment: [ Abs: 0.62453  Tot: +0.58361 ]
LCAOMinimize: Iter:  16  G: -1214.6492035887329166  |grad|_K:  9.955e-05  alpha:  5.040e-02  linmin:  1.312e-01  cgtest: -3.308e-01  t[s]:    725.99
LCAOMinimize: 	Wrong curvature in test step, increasing alphaT to 1.511983e-01.
	FillingsUpdate:  mu: -0.171251800  nElectrons: 406.000000  magneticMoment: [ Abs: 0.61103  Tot: +0.57064 ]
LCAOMinimize: Iter:  17  G: -1214.6497221020779307  |grad|_K:  9.071e-05  alpha: -4.386e+00  linmin: -2.635e-01  cgtest:  9.891e-01  t[s]:    763.14
LCAOMinimize: Encountered beta<0, resetting CG.
	FillingsUpdate:  mu: -0.171251800  nElectrons: 406.000000  magneticMoment: [ Abs: 0.58599  Tot: +0.54653 ]
LCAOMinimize: Iter:  18  G: -1214.6505385587827277  |grad|_K:  7.832e-05  alpha:  1.007e-01  linmin: -1.103e-01  cgtest:  3.924e-01  t[s]:    806.47
	FillingsUpdate:  mu: -0.171251800  nElectrons: 406.000000  magneticMoment: [ Abs: 0.51031  Tot: +0.47396 ]
LCAOMinimize: Iter:  19  G: -1214.6514738407474852  |grad|_K:  8.791e-05  alpha:  2.300e-01  linmin:  1.010e-02  cgtest: -3.932e-01  t[s]:    842.57
	FillingsUpdate:  mu: -0.171251800  nElectrons: 406.000000  magneticMoment: [ Abs: 0.43305  Tot: +0.39973 ]
LCAOMinimize: Iter:  20  G: -1214.6520377891561111  |grad|_K:  3.231e-05  alpha:  9.949e-02  linmin:  1.007e-01  cgtest:  2.971e-01  t[s]:    878.63
LCAOMinimize: 	Wrong curvature in test step, increasing alphaT to 2.984616e-01.
	FillingsUpdate:  mu: -0.171251800  nElectrons: 406.000000  magneticMoment: [ Abs: 0.41371  Tot: +0.38140 ]
LCAOMinimize: Iter:  21  G: -1214.6521565678688148  |grad|_K:  2.538e-05  alpha: -1.801e+00  linmin: -2.743e-01  cgtest:  8.167e-01  t[s]:    915.91
LCAOMinimize: Encountered beta<0, resetting CG.
	FillingsUpdate:  mu: -0.171251800  nElectrons: 406.000000  magneticMoment: [ Abs: 0.38116  Tot: +0.35070 ]
LCAOMinimize: Iter:  22  G: -1214.6522026948027815  |grad|_K:  3.130e-05  alpha:  1.970e-01  linmin: -7.636e-03  cgtest:  2.648e-02  t[s]:    955.24
	FillingsUpdate:  mu: -0.171251800  nElectrons: 406.000000  magneticMoment: [ Abs: 0.30698  Tot: +0.28070 ]
LCAOMinimize: Iter:  23  G: -1214.6523183663450709  |grad|_K:  3.291e-05  alpha:  1.853e-01  linmin:  1.060e-01  cgtest: -8.884e-01  t[s]:    995.11
LCAOMinimize: 	Bad step direction: g.d > 0.
LCAOMinimize: 	Undoing step.
LCAOMinimize: 	Step failed: resetting search direction.
	FillingsUpdate:  mu: -0.171251800  nElectrons: 406.000000  magneticMoment: [ Abs: 0.30698  Tot: +0.28070 ]
LCAOMinimize: Iter:  24  G: -1214.6523183663450709  |grad|_K:  3.291e-05  alpha:  0.000e+00
	FillingsUpdate:  mu: -0.171251800  nElectrons: 406.000000  magneticMoment: [ Abs: 0.30168  Tot: +0.27577 ]
LCAOMinimize: Iter:  25  G: -1214.6523249451231550  |grad|_K:  1.203e-05  alpha:  4.394e-02  linmin: -2.474e-01  cgtest:  5.770e-01  t[s]:   1059.81
LCAOMinimize: Encountered beta<0, resetting CG.
LCAOMinimize: 	Predicted alpha/alphaT>3.000000, increasing alphaT to 1.318225e-01.
	FillingsUpdate:  mu: -0.171251800  nElectrons: 406.000000  magneticMoment: [ Abs: 0.25695  Tot: +0.23410 ]
LCAOMinimize: Iter:  26  G: -1214.6523507643826179  |grad|_K:  1.667e-05  alpha:  3.720e-01  linmin:  4.251e-02  cgtest: -1.998e-01  t[s]:   1106.08
	FillingsUpdate:  mu: -0.171251800  nElectrons: 406.000000  magneticMoment: [ Abs: 0.22612  Tot: +0.20538 ]
LCAOMinimize: Iter:  27  G: -1214.6523835458303893  |grad|_K:  9.825e-06  alpha:  8.392e-02  linmin:  1.682e-01  cgtest: -3.673e-03  t[s]:   1142.65
LCAOMinimize: 	Wrong curvature in test step, increasing alphaT to 2.517728e-01.
	FillingsUpdate:  mu: -0.171251800  nElectrons: 406.000000  magneticMoment: [ Abs: 0.20780  Tot: +0.18836 ]
LCAOMinimize: Iter:  28  G: -1214.6523892329366845  |grad|_K:  9.048e-06  alpha: -2.772e-01  linmin: -1.468e-01  cgtest:  9.603e-01  t[s]:   1177.36
LCAOMinimize: Encountered beta<0, resetting CG.
LCAOMinimize: 	Step increased G by 5.787557e-06, reducing alpha to 1.087872e-02.
LCAOMinimize: 	Step increased G by 2.216732e-07, reducing alpha to 1.087872e-03.
LCAOMinimize: 	Step increased G by 1.859758e-08, reducing alpha to 1.087872e-04.
LCAOMinimize: 	Step failed to reduce G after 3 attempts. Quitting step.
LCAOMinimize: 	Undoing step.
LCAOMinimize: 	Step failed along negative gradient direction.
LCAOMinimize: Probably at roundoff error limit. (Stopping)
----- createFluidSolver() ----- (Fluid-side solver setup)
   Initializing fluid molecule 'H2O'
     Initializing site 'O'
       Electron density: proportional to exp(-r/0.36935)*erfc((r-0.51523)/0.36823) with norm 6.826
       Charge density: gaussian nuclear width 0.478731 with net site charge 0.826
       Polarizability: cuspless exponential with width 0.32 and norm 3.73
       Hard sphere radius: 2.57003 bohrs
       Positions in reference frame:
         [ +0.000000 +0.000000 +0.000000 ]
     Initializing site 'H'
       Electron density: proportional to exp(-r/0.34641)*erfc((r-0)/0.390882) with norm 0.587
       Charge density: gaussian nuclear width 0.377945 with net site charge -0.413
       Polarizability: cuspless exponential with width 0.39 and norm 3.3
       Positions in reference frame:
         [ +0.000000 -1.441945 +1.122523 ]
         [ +0.000000 +1.441945 +1.122523 ]
     Net charge: 0   dipole magnitude: 0.927204
     Initializing spherical shell mfKernel with radius 2.61727 Bohr
     deltaS corrections:
       site 'O': -7.54299
       site 'H': -6.83917
   Initializing fluid molecule 'Na+'
     Initializing site 'Na'
       Electron density: proportional to exp(-r/0.19682)*erfc((r-0.71491)/0.41314) with norm 8.1383
       Charge density: gaussian nuclear width 0.365347 with net site charge -1
       Hard sphere radius: 1.86327 bohrs
       Positions in reference frame:
         [ +0.000000 +0.000000 +0.000000 ]
     Net charge: -1   dipole magnitude: 0
     Initializing gaussian mfKernel with width: 1.55004 Bohr
     deltaS corrections:
       site 'Na': -22.3555
   Initializing fluid molecule 'F-'
     Initializing site 'F'
       Electron density: proportional to exp(-r/0.38886)*erfc((r-0)/0.438782) with norm 8
       Charge density: gaussian nuclear width 0.374796 with net site charge 1
       Hard sphere radius: 2.39995 bohrs
       Positions in reference frame:
         [ +0.000000 +0.000000 +0.000000 ]
     Net charge: 1   dipole magnitude: 0
     Initializing gaussian mfKernel with width: 1.59012 Bohr
     deltaS corrections:
       site 'F': -9.04335

Correction to mu due to finite nuclear width = -0.0107119
   Cavity determined by nc: 0.00142 and sigma: 0.707107
   Nonlocal vdW cavity from gaussian model electron density with norm = 8 and sigma = 0.993594 bohr
   Charge asymmetry in cavity with sensitivity pCavity = 36.5 e-bohr/Eh
   Electrostatic cavity expanded by eta = 1.46 bohrs
   Weighted density cavitation model constrained by Nbulk: 0.0049383 bohr^-3, Pvap: 3.14029 kPa, Rvdw: 2.61727 bohr and sigmaBulk: 4.62e-05 Eh/bohr^2 at T: 298 K.
   Weighted density dispersion model using vdW pair potentials with single solvent site with sqrtC6eff: 0.77 SI.


---- Citations for features of the code used in this run ----

   Software package:
      R. Sundararaman, K. Letchworth-Weaver, K.A. Schwarz, D. Gunceler, Y. Ozhabes and T.A. Arias, 'JDFTx: software for joint density-functional theory', SoftwareX 6, 278 (2017)

   gga-PBE exchange-correlation functional:
      J.P. Perdew, K. Burke and M. Ernzerhof, Phys. Rev. Lett. 77, 3865 (1996)

   Pseudopotentials:
      KF Garrity, JW Bennett, KM Rabe and D Vanderbilt, Comput. Mater. Sci. 81, 446 (2014)

   Truncated Coulomb potentials:
      R. Sundararaman and T.A. Arias, Phys. Rev. B 87, 165122 (2013)

   Van der Waals correction pair-potentials:
      S. Grimme, J. Comput. Chem. 27, 1787 (2006)

   Charge-asymmetric nonlocally-determined local-electric (CANDLE) solvation model:
      R. Sundararaman and W.A. Goddard III, J. Chem. Phys. 142, 064107 (2015)

   Total energy minimization with Auxiliary Hamiltonian:
      C. Freysoldt, S. Boeck, and J. Neugebauer, Phys. Rev. B 79, 241103(R) (2009)

   Grand-canonical (fixed-potential) DFT:
      R. Sundararaman, W. A. Goddard III and T. A. Arias, J. Chem. Phys. 146, 114104 (2017)

This list may not be complete. Please suggest additional citations or
report any other bugs at https://github.com/shankar1729/jdftx/issues

Initialization completed successfully at t[s]:   1301.93

Fluid solver invoked on fresh (partially random / LCAO) wavefunctions
Running a vacuum solve first:

-------- Initial electronic minimization -----------
	FillingsUpdate:  mu: -0.180932000  nElectrons: 406.000000  magneticMoment: [ Abs: 0.20772  Tot: +0.18829 ]
ElecMinimize: Iter:   0  G: -1214.645270369640002  |grad|_K:  8.053e-05  alpha:  1.000e+00
	FillingsUpdate:  mu: -0.082198021  nElectrons: 406.000000  magneticMoment: [ Abs: 0.14431  Tot: +0.12852 ]
	SubspaceRotationAdjust: set factor to 0.805
ElecMinimize: Iter:   1  G: -1216.034233067797231  |grad|_K:  5.203e-05  alpha:  7.852e-01  linmin: -9.940e-05  t[s]:   1380.28
	FillingsUpdate:  mu: -0.139081069  nElectrons: 406.000000  magneticMoment: [ Abs: 0.11684  Tot: +0.10331 ]
	SubspaceRotationAdjust: set factor to 0.576
ElecMinimize: Iter:   2  G: -1216.220216862221605  |grad|_K:  4.052e-05  alpha:  3.794e-01  linmin:  3.935e-04  t[s]:   1430.80
	FillingsUpdate:  mu: -0.129022478  nElectrons: 406.000000  magneticMoment: [ Abs: 0.09639  Tot: +0.08433 ]
	SubspaceRotationAdjust: set factor to 0.488
ElecMinimize: Iter:   3  G: -1216.347658752136340  |grad|_K:  2.235e-05  alpha:  2.508e-01  linmin: -6.265e-04  t[s]:   1473.88
	FillingsUpdate:  mu: -0.115132996  nElectrons: 406.000000  magneticMoment: [ Abs: 0.08259  Tot: +0.07200 ]
	SubspaceRotationAdjust: set factor to 0.396
ElecMinimize: Iter:   4  G: -1216.393897339927435  |grad|_K:  1.695e-05  alpha:  3.185e-01  linmin:  1.670e-04  t[s]:   1529.25
	FillingsUpdate:  mu: -0.112812618  nElectrons: 406.000000  magneticMoment: [ Abs: 0.07228  Tot: +0.06312 ]
	SubspaceRotationAdjust: set factor to 0.413
ElecMinimize: Iter:   5  G: -1216.414512874183856  |grad|_K:  1.088e-05  alpha:  2.679e-01  linmin: -6.583e-05  t[s]:   1587.91
	FillingsUpdate:  mu: -0.119784211  nElectrons: 406.000000  magneticMoment: [ Abs: 0.06172  Tot: +0.05420 ]
	SubspaceRotationAdjust: set factor to 0.433
ElecMinimize: Iter:   6  G: -1216.427914112704457  |grad|_K:  7.798e-06  alpha:  4.093e-01  linmin: -3.457e-05  t[s]:   1644.10
	FillingsUpdate:  mu: -0.123755492  nElectrons: 406.000000  magneticMoment: [ Abs: 0.05518  Tot: +0.04863 ]
	SubspaceRotationAdjust: set factor to 0.369
ElecMinimize: Iter:   7  G: -1216.432889135082405  |grad|_K:  5.935e-06  alpha:  2.968e-01  linmin:  1.987e-06  t[s]:   1697.25
	FillingsUpdate:  mu: -0.124355265  nElectrons: 406.000000  magneticMoment: [ Abs: 0.04803  Tot: +0.04245 ]
	SubspaceRotationAdjust: set factor to 0.461
ElecMinimize: Iter:   8  G: -1216.436149978831054  |grad|_K:  3.641e-06  alpha:  3.386e-01  linmin:  1.840e-05  t[s]:   1757.77
	FillingsUpdate:  mu: -0.122922358  nElectrons: 406.000000  magneticMoment: [ Abs: 0.04235  Tot: +0.03750 ]
	SubspaceRotationAdjust: set factor to 0.348
ElecMinimize: Iter:   9  G: -1216.437607391705797  |grad|_K:  3.178e-06  alpha:  4.043e-01  linmin:  1.142e-05  t[s]:   1811.38
	FillingsUpdate:  mu: -0.122101508  nElectrons: 406.000000  magneticMoment: [ Abs: 0.03760  Tot: +0.03331 ]
	SubspaceRotationAdjust: set factor to 0.379
ElecMinimize: Iter:  10  G: -1216.438370078899652  |grad|_K:  1.948e-06  alpha:  2.762e-01  linmin:  2.626e-07  t[s]:   1860.65
	FillingsUpdate:  mu: -0.122029597  nElectrons: 406.000000  magneticMoment: [ Abs: 0.03320  Tot: +0.02945 ]
	SubspaceRotationAdjust: set factor to 0.353
ElecMinimize: Iter:  11  G: -1216.438785699021309  |grad|_K:  1.449e-06  alpha:  4.010e-01  linmin:  9.351e-06  t[s]:   1909.74
	FillingsUpdate:  mu: -0.122459390  nElectrons: 406.000000  magneticMoment: [ Abs: 0.02962  Tot: +0.02630 ]
	SubspaceRotationAdjust: set factor to 0.408
ElecMinimize: Iter:  12  G: -1216.438983293765432  |grad|_K:  1.020e-06  alpha:  3.453e-01  linmin:  6.594e-07  t[s]:   1954.17
	FillingsUpdate:  mu: -0.122832099  nElectrons: 406.000000  magneticMoment: [ Abs: 0.02681  Tot: +0.02382 ]
	SubspaceRotationAdjust: set factor to 0.357
ElecMinimize: Iter:  13  G: -1216.439075128202148  |grad|_K:  6.924e-07  alpha:  3.227e-01  linmin:  8.096e-07  t[s]:   1999.62
	FillingsUpdate:  mu: -0.122796840  nElectrons: 406.000000  magneticMoment: [ Abs: 0.02350  Tot: +0.02088 ]
	SubspaceRotationAdjust: set factor to 0.375
ElecMinimize: Iter:  14  G: -1216.439131071562770  |grad|_K:  4.889e-07  alpha:  4.267e-01  linmin:  1.361e-06  t[s]:   2048.78
	FillingsUpdate:  mu: -0.122643247  nElectrons: 406.000000  magneticMoment: [ Abs: 0.02154  Tot: +0.01914 ]
	SubspaceRotationAdjust: set factor to 0.296
ElecMinimize: Iter:  15  G: -1216.439150086624977  |grad|_K:  3.386e-07  alpha:  2.908e-01  linmin:  2.627e-08  t[s]:   2097.40
	FillingsUpdate:  mu: -0.122553063  nElectrons: 406.000000  magneticMoment: [ Abs: 0.01866  Tot: +0.01659 ]
	SubspaceRotationAdjust: set factor to 0.459
ElecMinimize: Iter:  16  G: -1216.439165109210762  |grad|_K:  2.173e-07  alpha:  4.788e-01  linmin:  8.388e-07  t[s]:   2141.81
	FillingsUpdate:  mu: -0.122602821  nElectrons: 406.000000  magneticMoment: [ Abs: 0.01692  Tot: +0.01505 ]
	SubspaceRotationAdjust: set factor to 0.403
ElecMinimize: Iter:  17  G: -1216.439170213806847  |grad|_K:  1.838e-07  alpha:  3.952e-01  linmin:  1.199e-07  t[s]:   2187.20
	FillingsUpdate:  mu: -0.122650656  nElectrons: 406.000000  magneticMoment: [ Abs: 0.01493  Tot: +0.01327 ]
	SubspaceRotationAdjust: set factor to 0.38
ElecMinimize: Iter:  18  G: -1216.439173411069987  |grad|_K:  1.219e-07  alpha:  3.456e-01  linmin:  2.044e-07  t[s]:   2235.97
	FillingsUpdate:  mu: -0.122664288  nElectrons: 406.000000  magneticMoment: [ Abs: 0.01302  Tot: +0.01157 ]
	SubspaceRotationAdjust: set factor to 0.342
ElecMinimize: Iter:  19  G: -1216.439175100244483  |grad|_K:  8.005e-08  alpha:  4.155e-01  linmin:  3.336e-07  t[s]:   2283.26
	FillingsUpdate:  mu: -0.122645236  nElectrons: 406.000000  magneticMoment: [ Abs: 0.01112  Tot: +0.00987 ]
	SubspaceRotationAdjust: set factor to 0.414
ElecMinimize: Iter:  20  G: -1216.439176005727631  |grad|_K:  5.369e-08  alpha:  5.167e-01  linmin:  2.126e-07  t[s]:   2331.55
	FillingsUpdate:  mu: -0.122632254  nElectrons: 406.000000  magneticMoment: [ Abs: 0.00989  Tot: +0.00878 ]
	SubspaceRotationAdjust: set factor to 0.364
ElecMinimize: Iter:  21  G: -1216.439176332103443  |grad|_K:  4.124e-08  alpha:  4.138e-01  linmin:  1.825e-08  t[s]:   2376.91
	FillingsUpdate:  mu: -0.122636544  nElectrons: 406.000000  magneticMoment: [ Abs: 0.00872  Tot: +0.00774 ]
	SubspaceRotationAdjust: set factor to 0.326
ElecMinimize: Iter:  22  G: -1216.439176505455862  |grad|_K:  2.712e-08  alpha:  3.722e-01  linmin:  5.182e-08  t[s]:   2423.88
	FillingsUpdate:  mu: -0.122642902  nElectrons: 406.000000  magneticMoment: [ Abs: 0.00747  Tot: +0.00663 ]
	SubspaceRotationAdjust: set factor to 0.379
ElecMinimize: Iter:  23  G: -1216.439176608032085  |grad|_K:  1.799e-08  alpha:  5.098e-01  linmin:  8.909e-08  t[s]:   2478.54
	FillingsUpdate:  mu: -0.122643864  nElectrons: 406.000000  magneticMoment: [ Abs: 0.00648  Tot: +0.00576 ]
	SubspaceRotationAdjust: set factor to 0.4
ElecMinimize: Iter:  24  G: -1216.439176653619143  |grad|_K:  1.288e-08  alpha:  5.152e-01  linmin:  8.698e-08  t[s]:   2525.94
	FillingsUpdate:  mu: -0.122640950  nElectrons: 406.000000  magneticMoment: [ Abs: 0.00563  Tot: +0.00500 ]
	SubspaceRotationAdjust: set factor to 0.391
ElecMinimize: Iter:  25  G: -1216.439176674895180  |grad|_K:  1.078e-08  alpha:  4.686e-01  linmin:  1.737e-07  t[s]:   2570.90
	FillingsUpdate:  mu: -0.122638968  nElectrons: 406.000000  magneticMoment: [ Abs: 0.00488  Tot: +0.00434 ]
	SubspaceRotationAdjust: set factor to 0.338
ElecMinimize: Iter:  26  G: -1216.439176686423252  |grad|_K:  7.634e-09  alpha:  3.640e-01  linmin: -7.122e-08  t[s]:   2616.64
	FillingsUpdate:  mu: -0.122640093  nElectrons: 406.000000  magneticMoment: [ Abs: 0.00411  Tot: +0.00365 ]
	SubspaceRotationAdjust: set factor to 0.377
ElecMinimize: Iter:  27  G: -1216.439176693747868  |grad|_K:  5.072e-09  alpha:  4.583e-01  linmin:  8.789e-08  t[s]:   2665.16
	FillingsUpdate:  mu: -0.122640219  nElectrons: 406.000000  magneticMoment: [ Abs: 0.00338  Tot: +0.00300 ]
	SubspaceRotationAdjust: set factor to 0.466
ElecMinimize: Iter:  28  G: -1216.439176697931316  |grad|_K:  3.873e-09  alpha:  6.018e-01  linmin: -1.465e-08  t[s]:   2711.56
ElecMinimize: Converged (|Delta G|<1.000000e-08 for 2 iters).
Setting wave functions to eigenvectors of Hamiltonian
Vacuum energy after initial minimize, F = -1216.439176697931316

Shifting auxilliary hamiltonian by -0.048612 to set nElectrons=406.000000
	Linear fluid (dielectric constant: 78.4, screening length: 5.74355 Bohr) occupying 0.755330 of unit cell:	Completed after 21 iterations at t[s]:   2727.76

-------- Electronic minimization -----------
	Linear fluid (dielectric constant: 78.4, screening length: 5.74355 Bohr) occupying 0.755330 of unit cell:	Completed after 0 iterations at t[s]:   2742.31
	FillingsUpdate:  mu: -0.171251800  nElectrons: 406.000000  magneticMoment: [ Abs: 0.00231  Tot: +0.00197 ]
ElecMinimize: Iter:   0  G: -1216.430466392990638  |grad|_K:  3.350e-05  alpha:  1.000e+00
	Linear fluid (dielectric constant: 78.4, screening length: 5.74355 Bohr) occupying 0.810043 of unit cell:	Completed after 29 iterations at t[s]:   2786.37
	Linear fluid (dielectric constant: 78.4, screening length: 5.74355 Bohr) occupying 0.769924 of unit cell:	Completed after 24 iterations at t[s]:   2809.44
ElecMinimize: 	Step increased G by 4.572641e-03, reducing alpha to 1.476921e-02.
	Linear fluid (dielectric constant: 78.4, screening length: 5.74355 Bohr) occupying 0.755419 of unit cell:	Completed after 18 iterations at t[s]:   2843.52
	FillingsUpdate:  mu: -0.171251800  nElectrons: 406.216516  magneticMoment: [ Abs: 0.00229  Tot: +0.00196 ]
	SubspaceRotationAdjust: set factor to 0.234
ElecMinimize: Iter:   1  G: -1216.438397825609854  |grad|_K:  2.534e-05  alpha:  1.477e-02  linmin: -1.355e-01  t[s]:   2862.77
	Linear fluid (dielectric constant: 78.4, screening length: 5.74355 Bohr) occupying 0.755912 of unit cell:	Completed after 14 iterations at t[s]:   2881.20
	Linear fluid (dielectric constant: 78.4, screening length: 5.74355 Bohr) occupying 0.758041 of unit cell:	Completed after 14 iterations at t[s]:   2901.09
	FillingsUpdate:  mu: -0.171251800  nElectrons: 406.946914  magneticMoment: [ Abs: 0.00223  Tot: +0.00190 ]
	SubspaceRotationAdjust: set factor to 0.195
ElecMinimize: Iter:   2  G: -1216.450519291441651  |grad|_K:  7.700e-06  alpha:  3.799e-02  linmin: -3.396e-03  t[s]:   2923.66
	Linear fluid (dielectric constant: 78.4, screening length: 5.74355 Bohr) occupying 0.758539 of unit cell:	Completed after 11 iterations at t[s]:   2941.08
ElecMinimize: 	Predicted alpha/alphaT>3.000000, increasing alphaT to 1.139704e-01.
	Linear fluid (dielectric constant: 78.4, screening length: 5.74355 Bohr) occupying 0.759652 of unit cell:	Completed after 12 iterations at t[s]:   2961.54
ElecMinimize: 	Predicted alpha/alphaT>3.000000, increasing alphaT to 3.419111e-01.
	Linear fluid (dielectric constant: 78.4, screening length: 5.74355 Bohr) occupying 0.763772 of unit cell:	Completed after 14 iterations at t[s]:   2981.39
	Linear fluid (dielectric constant: 78.4, screening length: 5.74355 Bohr) occupying 0.767247 of unit cell:	Completed after 14 iterations at t[s]:   3004.07
	FillingsUpdate:  mu: -0.171251800  nElectrons: 407.917965  magneticMoment: [ Abs: 0.00205  Tot: +0.00176 ]
	SubspaceRotationAdjust: set factor to 0.125
ElecMinimize: Iter:   3  G: -1216.460060180785376  |grad|_K:  1.242e-05  alpha:  5.066e-01  linmin: -1.721e-03  t[s]:   3025.41
	Linear fluid (dielectric constant: 78.4, screening length: 5.74355 Bohr) occupying 0.779762 of unit cell:	Completed after 19 iterations at t[s]:   3045.23
	Linear fluid (dielectric constant: 78.4, screening length: 5.74355 Bohr) occupying 0.775365 of unit cell:	Completed after 17 iterations at t[s]:   3068.07
	FillingsUpdate:  mu: -0.171251800  nElectrons: 408.650950  magneticMoment: [ Abs: 0.00191  Tot: +0.00154 ]
	SubspaceRotationAdjust: set factor to 0.221
ElecMinimize: Iter:   4  G: -1216.475105582209608  |grad|_K:  6.165e-06  alpha:  3.140e-01  linmin: -3.478e-05  t[s]:   3088.94
	Linear fluid (dielectric constant: 78.4, screening length: 5.74355 Bohr) occupying 0.775084 of unit cell:	Completed after 17 iterations at t[s]:   3108.54
	Linear fluid (dielectric constant: 78.4, screening length: 5.74355 Bohr) occupying 0.774983 of unit cell:	Completed after 12 iterations at t[s]:   3129.38
	FillingsUpdate:  mu: -0.171251800  nElectrons: 408.667510  magneticMoment: [ Abs: 0.00194  Tot: +0.00145 ]
	SubspaceRotationAdjust: set factor to 0.2
ElecMinimize: Iter:   5  G: -1216.479487835746113  |grad|_K:  5.637e-06  alpha:  4.210e-01  linmin:  1.052e-04  t[s]:   3150.79
	Linear fluid (dielectric constant: 78.4, screening length: 5.74355 Bohr) occupying 0.778648 of unit cell:	Completed after 18 iterations at t[s]:   3168.16
	Linear fluid (dielectric constant: 78.4, screening length: 5.74355 Bohr) occupying 0.777962 of unit cell:	Completed after 12 iterations at t[s]:   3186.45
	FillingsUpdate:  mu: -0.171251800  nElectrons: 408.970891  magneticMoment: [ Abs: 0.00191  Tot: +0.00132 ]
	SubspaceRotationAdjust: set factor to 0.208
ElecMinimize: Iter:   6  G: -1216.482420391868345  |grad|_K:  3.523e-06  alpha:  3.393e-01  linmin:  8.734e-06  t[s]:   3206.25
	Linear fluid (dielectric constant: 78.4, screening length: 5.74355 Bohr) occupying 0.778475 of unit cell:	Completed after 13 iterations at t[s]:   3223.70
	Linear fluid (dielectric constant: 78.4, screening length: 5.74355 Bohr) occupying 0.778840 of unit cell:	Completed after 13 iterations at t[s]:   3244.92
	FillingsUpdate:  mu: -0.171251800  nElectrons: 409.102395  magneticMoment: [ Abs: 0.00183  Tot: +0.00118 ]
	SubspaceRotationAdjust: set factor to 0.179
ElecMinimize: Iter:   7  G: -1216.484403839872357  |grad|_K:  3.398e-06  alpha:  5.850e-01  linmin:  3.493e-05  t[s]:   3264.78
	Linear fluid (dielectric constant: 78.4, screening length: 5.74355 Bohr) occupying 0.775300 of unit cell:	Completed after 16 iterations at t[s]:   3284.75
	Linear fluid (dielectric constant: 78.4, screening length: 5.74355 Bohr) occupying 0.777014 of unit cell:	Completed after 14 iterations at t[s]:   3305.14
	FillingsUpdate:  mu: -0.171251800  nElectrons: 408.973260  magneticMoment: [ Abs: 0.00176  Tot: +0.00109 ]
	SubspaceRotationAdjust: set factor to 0.146
ElecMinimize: Iter:   8  G: -1216.485378995735800  |grad|_K:  2.497e-06  alpha:  3.074e-01  linmin: -1.895e-05  t[s]:   3325.48
	Linear fluid (dielectric constant: 78.4, screening length: 5.74355 Bohr) occupying 0.776779 of unit cell:	Completed after 6 iterations at t[s]:   3342.73
	Linear fluid (dielectric constant: 78.4, screening length: 5.74355 Bohr) occupying 0.776581 of unit cell:	Completed after 9 iterations at t[s]:   3362.54
	FillingsUpdate:  mu: -0.171251800  nElectrons: 408.964776  magneticMoment: [ Abs: 0.00157  Tot: +0.00095 ]
	SubspaceRotationAdjust: set factor to 0.204
ElecMinimize: Iter:   9  G: -1216.486338373737681  |grad|_K:  1.937e-06  alpha:  5.618e-01  linmin:  3.159e-05  t[s]:   3382.49
	Linear fluid (dielectric constant: 78.4, screening length: 5.74355 Bohr) occupying 0.777798 of unit cell:	Completed after 14 iterations at t[s]:   3399.30
	Linear fluid (dielectric constant: 78.4, screening length: 5.74355 Bohr) occupying 0.777464 of unit cell:	Completed after 12 iterations at t[s]:   3419.47
	FillingsUpdate:  mu: -0.171251800  nElectrons: 409.048089  magneticMoment: [ Abs: 0.00140  Tot: +0.00087 ]
	SubspaceRotationAdjust: set factor to 0.169
ElecMinimize: Iter:  10  G: -1216.486754758546795  |grad|_K:  1.617e-06  alpha:  4.064e-01  linmin:  1.368e-05  t[s]:   3439.08
	Linear fluid (dielectric constant: 78.4, screening length: 5.74355 Bohr) occupying 0.777053 of unit cell:	Completed after 11 iterations at t[s]:   3455.56
	Linear fluid (dielectric constant: 78.4, screening length: 5.74355 Bohr) occupying 0.776969 of unit cell:	Completed after 3 iterations at t[s]:   3475.75
	FillingsUpdate:  mu: -0.171251800  nElectrons: 409.008024  magneticMoment: [ Abs: 0.00118  Tot: +0.00076 ]
	SubspaceRotationAdjust: set factor to 0.186
ElecMinimize: Iter:  11  G: -1216.487103043794150  |grad|_K:  1.052e-06  alpha:  4.875e-01  linmin: -1.093e-05  t[s]:   3496.57
	Linear fluid (dielectric constant: 78.4, screening length: 5.74355 Bohr) occupying 0.776745 of unit cell:	Completed after 11 iterations at t[s]:   3514.22
	Linear fluid (dielectric constant: 78.4, screening length: 5.74355 Bohr) occupying 0.776703 of unit cell:	Completed after 3 iterations at t[s]:   3532.28
	FillingsUpdate:  mu: -0.171251800  nElectrons: 408.983685  magneticMoment: [ Abs: 0.00099  Tot: +0.00068 ]
	SubspaceRotationAdjust: set factor to 0.195
ElecMinimize: Iter:  12  G: -1216.487279105444486  |grad|_K:  8.569e-07  alpha:  5.790e-01  linmin: -4.276e-05  t[s]:   3554.37
	Linear fluid (dielectric constant: 78.4, screening length: 5.74355 Bohr) occupying 0.777402 of unit cell:	Completed after 12 iterations at t[s]:   3571.81
	Linear fluid (dielectric constant: 78.4, screening length: 5.74355 Bohr) occupying 0.777129 of unit cell:	Completed after 11 iterations at t[s]:   3590.83
	FillingsUpdate:  mu: -0.171251800  nElectrons: 409.018800  magneticMoment: [ Abs: 0.00086  Tot: +0.00063 ]
	SubspaceRotationAdjust: set factor to 0.15
ElecMinimize: Iter:  13  G: -1216.487350953721034  |grad|_K:  5.947e-07  alpha:  3.514e-01  linmin:  1.221e-05  t[s]:   3610.35
	Linear fluid (dielectric constant: 78.4, screening length: 5.74355 Bohr) occupying 0.777054 of unit cell:	Completed after 7 iterations at t[s]:   3625.55
	Linear fluid (dielectric constant: 78.4, screening length: 5.74355 Bohr) occupying 0.777016 of unit cell:	Completed after 3 iterations at t[s]:   3643.26
	FillingsUpdate:  mu: -0.171251800  nElectrons: 409.008439  magneticMoment: [ Abs: 0.00072  Tot: +0.00057 ]
	SubspaceRotationAdjust: set factor to 0.162
ElecMinimize: Iter:  14  G: -1216.487401741047051  |grad|_K:  4.038e-07  alpha:  5.257e-01  linmin: -1.311e-05  t[s]:   3663.18
	Linear fluid (dielectric constant: 78.4, screening length: 5.74355 Bohr) occupying 0.776893 of unit cell:	Completed after 8 iterations at t[s]:   3681.21
	Linear fluid (dielectric constant: 78.4, screening length: 5.74355 Bohr) occupying 0.776900 of unit cell:	Completed after 0 iterations at t[s]:   3697.48
	FillingsUpdate:  mu: -0.171251800  nElectrons: 408.998682  magneticMoment: [ Abs: 0.00064  Tot: +0.00053 ]
	SubspaceRotationAdjust: set factor to 0.168
ElecMinimize: Iter:  15  G: -1216.487423855927773  |grad|_K:  3.308e-07  alpha:  4.932e-01  linmin: -1.717e-05  t[s]:   3718.39
	Linear fluid (dielectric constant: 78.4, screening length: 5.74355 Bohr) occupying 0.777073 of unit cell:	Completed after 11 iterations at t[s]:   3735.27
	Linear fluid (dielectric constant: 78.4, screening length: 5.74355 Bohr) occupying 0.777029 of unit cell:	Completed after 2 iterations at t[s]:   3755.51
	FillingsUpdate:  mu: -0.171251800  nElectrons: 409.009818  magneticMoment: [ Abs: 0.00059  Tot: +0.00049 ]
	SubspaceRotationAdjust: set factor to 0.138
ElecMinimize: Iter:  16  G: -1216.487434861080601  |grad|_K:  2.261e-07  alpha:  3.661e-01  linmin:  2.064e-05  t[s]:   3775.29
	Linear fluid (dielectric constant: 78.4, screening length: 5.74355 Bohr) occupying 0.776993 of unit cell:	Completed after 2 iterations at t[s]:   3789.99
	Linear fluid (dielectric constant: 78.4, screening length: 5.74355 Bohr) occupying 0.776979 of unit cell:	Completed after 0 iterations at t[s]:   3808.69
	FillingsUpdate:  mu: -0.171251800  nElectrons: 409.005693  magneticMoment: [ Abs: 0.00054  Tot: +0.00045 ]
	SubspaceRotationAdjust: set factor to 0.185
ElecMinimize: Iter:  17  G: -1216.487441937415269  |grad|_K:  1.641e-07  alpha:  5.071e-01  linmin: -3.060e-05  t[s]:   3830.70
	Linear fluid (dielectric constant: 78.4, screening length: 5.74355 Bohr) occupying 0.776882 of unit cell:	Completed after 8 iterations at t[s]:   3846.47
	Linear fluid (dielectric constant: 78.4, screening length: 5.74355 Bohr) occupying 0.776903 of unit cell:	Completed after 0 iterations at t[s]:   3862.92
	FillingsUpdate:  mu: -0.171251800  nElectrons: 408.999109  magneticMoment: [ Abs: 0.00051  Tot: +0.00043 ]
	SubspaceRotationAdjust: set factor to 0.153
ElecMinimize: Iter:  18  G: -1216.487444868791272  |grad|_K:  1.820e-07  alpha:  3.998e-01  linmin: -7.950e-06  t[s]:   3881.43
	Linear fluid (dielectric constant: 78.4, screening length: 5.74355 Bohr) occupying 0.776959 of unit cell:	Completed after 6 iterations at t[s]:   3897.64
	Linear fluid (dielectric constant: 78.4, screening length: 5.74355 Bohr) occupying 0.776940 of unit cell:	Completed after 3 iterations at t[s]:   3916.03
	FillingsUpdate:  mu: -0.171251800  nElectrons: 409.002049  magneticMoment: [ Abs: 0.00048  Tot: +0.00040 ]
	SubspaceRotationAdjust: set factor to 0.177
ElecMinimize: Iter:  19  G: -1216.487447079329286  |grad|_K:  1.125e-07  alpha:  2.633e-01  linmin: -9.666e-06  t[s]:   3938.01
	Linear fluid (dielectric constant: 78.4, screening length: 5.74355 Bohr) occupying 0.776949 of unit cell:	Completed after 0 iterations at t[s]:   3953.09
	Linear fluid (dielectric constant: 78.4, screening length: 5.74355 Bohr) occupying 0.776960 of unit cell:	Completed after 2 iterations at t[s]:   3972.30
	FillingsUpdate:  mu: -0.171251800  nElectrons: 409.003268  magneticMoment: [ Abs: 0.00043  Tot: +0.00036 ]
	SubspaceRotationAdjust: set factor to 0.205
ElecMinimize: Iter:  20  G: -1216.487448764265537  |grad|_K:  1.137e-07  alpha:  5.639e-01  linmin:  4.964e-05  t[s]:   3992.96
	Linear fluid (dielectric constant: 78.4, screening length: 5.74355 Bohr) occupying 0.776883 of unit cell:	Completed after 3 iterations at t[s]:   4006.79
	Linear fluid (dielectric constant: 78.4, screening length: 5.74355 Bohr) occupying 0.776901 of unit cell:	Completed after 0 iterations at t[s]:   4025.59
	FillingsUpdate:  mu: -0.171251800  nElectrons: 408.997628  magneticMoment: [ Abs: 0.00038  Tot: +0.00032 ]
	SubspaceRotationAdjust: set factor to 0.207
ElecMinimize: Iter:  21  G: -1216.487450079430346  |grad|_K:  9.158e-08  alpha:  4.310e-01  linmin:  1.659e-05  t[s]:   4046.41
	Linear fluid (dielectric constant: 78.4, screening length: 5.74355 Bohr) occupying 0.776887 of unit cell:	Completed after 0 iterations at t[s]:   4060.41
	Linear fluid (dielectric constant: 78.4, screening length: 5.74355 Bohr) occupying 0.776886 of unit cell:	Completed after 0 iterations at t[s]:   4077.84
	FillingsUpdate:  mu: -0.171251800  nElectrons: 408.995610  magneticMoment: [ Abs: 0.00033  Tot: +0.00028 ]
	SubspaceRotationAdjust: set factor to 0.234
ElecMinimize: Iter:  22  G: -1216.487451072409613  |grad|_K:  8.022e-08  alpha:  4.611e-01  linmin:  8.508e-09  t[s]:   4100.32
	Linear fluid (dielectric constant: 78.4, screening length: 5.74355 Bohr) occupying 0.776894 of unit cell:	Completed after 2 iterations at t[s]:   4116.92
	Linear fluid (dielectric constant: 78.4, screening length: 5.74355 Bohr) occupying 0.776893 of unit cell:	Completed after 0 iterations at t[s]:   4134.83
	FillingsUpdate:  mu: -0.171251800  nElectrons: 408.995640  magneticMoment: [ Abs: 0.00029  Tot: +0.00024 ]
	SubspaceRotationAdjust: set factor to 0.227
ElecMinimize: Iter:  23  G: -1216.487451673796841  |grad|_K:  7.150e-08  alpha:  3.661e-01  linmin: -1.425e-05  t[s]:   4155.99
	Linear fluid (dielectric constant: 78.4, screening length: 5.74355 Bohr) occupying 0.776864 of unit cell:	Completed after 1 iterations at t[s]:   4169.86
	Linear fluid (dielectric constant: 78.4, screening length: 5.74355 Bohr) occupying 0.776865 of unit cell:	Completed after 0 iterations at t[s]:   4187.38
	FillingsUpdate:  mu: -0.171251800  nElectrons: 408.992767  magneticMoment: [ Abs: 0.00025  Tot: +0.00021 ]
	SubspaceRotationAdjust: set factor to 0.261
ElecMinimize: Iter:  24  G: -1216.487452204016563  |grad|_K:  5.584e-08  alpha:  3.499e-01  linmin: -5.513e-06  t[s]:   4208.35
	Linear fluid (dielectric constant: 78.4, screening length: 5.74355 Bohr) occupying 0.776840 of unit cell:	Completed after 2 iterations at t[s]:   4222.35
	Linear fluid (dielectric constant: 78.4, screening length: 5.74355 Bohr) occupying 0.776847 of unit cell:	Completed after 0 iterations at t[s]:   4243.16
	FillingsUpdate:  mu: -0.171251800  nElectrons: 408.990923  magneticMoment: [ Abs: 0.00022  Tot: +0.00019 ]
	SubspaceRotationAdjust: set factor to 0.246
ElecMinimize: Iter:  25  G: -1216.487452411070308  |grad|_K:  5.222e-08  alpha:  2.599e-01  linmin: -9.815e-06  t[s]:   4262.80
	Linear fluid (dielectric constant: 78.4, screening length: 5.74355 Bohr) occupying 0.776859 of unit cell:	Completed after 0 iterations at t[s]:   4277.86
	Linear fluid (dielectric constant: 78.4, screening length: 5.74355 Bohr) occupying 0.776860 of unit cell:	Completed after 0 iterations at t[s]:   4294.77
	FillingsUpdate:  mu: -0.171251800  nElectrons: 408.991768  magneticMoment: [ Abs: 0.00020  Tot: +0.00017 ]
	SubspaceRotationAdjust: set factor to 0.305
ElecMinimize: Iter:  26  G: -1216.487452631184397  |grad|_K:  4.792e-08  alpha:  2.710e-01  linmin: -9.757e-06  t[s]:   4314.92
	Linear fluid (dielectric constant: 78.4, screening length: 5.74355 Bohr) occupying 0.776899 of unit cell:	Completed after 2 iterations at t[s]:   4328.71
	Linear fluid (dielectric constant: 78.4, screening length: 5.74355 Bohr) occupying 0.776871 of unit cell:	Completed after 0 iterations at t[s]:   4345.00
	FillingsUpdate:  mu: -0.171251800  nElectrons: 408.992695  magneticMoment: [ Abs: 0.00019  Tot: +0.00016 ]
	SubspaceRotationAdjust: set factor to 0.191
ElecMinimize: Iter:  27  G: -1216.487452731013263  |grad|_K:  9.006e-08  alpha:  8.117e-02  linmin:  8.915e-05  t[s]:   4365.08
ElecMinimize: 	Bad step direction: g.d > 0.
ElecMinimize: 	Undoing step.
	Linear fluid (dielectric constant: 78.4, screening length: 5.74355 Bohr) occupying 0.776871 of unit cell:	Completed after 0 iterations at t[s]:   4379.65
ElecMinimize: 	Step failed: resetting search direction.
	FillingsUpdate:  mu: -0.171251800  nElectrons: 408.992695  magneticMoment: [ Abs: 0.00019  Tot: +0.00016 ]
	SubspaceRotationAdjust: set factor to 0.134
ElecMinimize: Iter:  28  G: -1216.487452731010990  |grad|_K:  7.546e-08  alpha:  0.000e+00
	Linear fluid (dielectric constant: 78.4, screening length: 5.74355 Bohr) occupying 0.776856 of unit cell:	Completed after 1 iterations at t[s]:   4415.14
	Linear fluid (dielectric constant: 78.4, screening length: 5.74355 Bohr) occupying 0.776864 of unit cell:	Completed after 0 iterations at t[s]:   4433.07
ElecMinimize: 	Step increased G by 6.943696e-08, reducing alpha to 3.675568e-03.
	Linear fluid (dielectric constant: 78.4, screening length: 5.74355 Bohr) occupying 0.776871 of unit cell:	Completed after 0 iterations at t[s]:   4466.61
ElecMinimize: 	Step increased G by 1.021815e-07, reducing alpha to 3.675568e-04.
	Linear fluid (dielectric constant: 78.4, screening length: 5.74355 Bohr) occupying 0.776871 of unit cell:	Completed after 0 iterations at t[s]:   4497.05
ElecMinimize: 	Step increased G by 1.054909e-07, reducing alpha to 3.675568e-05.
ElecMinimize: 	Step failed to reduce G after 3 attempts. Quitting step.
ElecMinimize: 	Undoing step.
	Linear fluid (dielectric constant: 78.4, screening length: 5.74355 Bohr) occupying 0.776871 of unit cell:	Completed after 0 iterations at t[s]:   4529.79
ElecMinimize: 	Step failed along negative gradient direction.
ElecMinimize: Probably at roundoff error limit. (Stopping)
Setting wave functions to eigenvectors of Hamiltonian
Single-point solvation energy estimate, DeltaG = -0.048275927563054

# Ionic positions in lattice coordinates:
ion Ta   0.169633374701797   0.086477313074728   0.501226765357329 1
ion Ta   0.416864229338630   0.086490722839662   0.501208744520278 1
ion Ta   0.668662777770051   0.086855494635700   0.501475868162552 1
ion Ta   0.918195390781421   0.086848456360382   0.501491944121780 1
ion Ta   0.167687429141498   0.336370765940808   0.501039927698472 1
ion Ta   0.413579787044830   0.327146506699697   0.500261968202349 1
ion Ta   0.668682686391425   0.336371160413535   0.501054805456058 1
ion Ta   0.918183143184445   0.336356239854205   0.501452048986939 1
ion Ta   0.169596319044164   0.588196836926334   0.501026725610818 1
ion Ta   0.413539268289999   0.591538998902413   0.500061575547667 1
ion Ta   0.677972218568366   0.591521277337416   0.500114796037717 1
ion Ta   0.918578012282596   0.588185238267173   0.501065206895869 1
ion Ta   0.168337105965882   0.836689244511977   0.501087560497606 1
ion Ta   0.416845264257275   0.835451039320594   0.501051087572565 1
ion Ta   0.668686257036271   0.837393174104871   0.500944674533342 1
ion Ta   0.918588208507159   0.835422783767902   0.501112892890901 1
ion S   0.001939795243655   0.003025326502831   0.587131579583439 1
ion S   0.001856724637993   0.003314206079078   0.415466137186367 1
ion S   0.251336592311446   0.002636267740459   0.587965272479836 1
ion S   0.251425389631561   0.002853371808710   0.414379711342101 1
ion S   0.501092671064963   0.003016241098712   0.587098983508382 1
ion S   0.501491034362634   0.003362853122913   0.415426156898094 1
ion S   0.751592101132303   0.003190257115941   0.587823143834933 1
ion S   0.752063511749805   0.004100767894118   0.414910623501248 1
ion S   0.001825832422385   0.253445365721793   0.587849890909803 1
ion S   0.001040138931431   0.253009536793542   0.414942096376151 1
ion S   0.251036394790108   0.253399202281759   0.587914118466564 1
ion S   0.249380359721654   0.252370981619752   0.413890598469766 1
ion S   0.502361147872494   0.253389551268440   0.587917759352638 1
ion S   0.503016078510675   0.252392254990664   0.413885248824863 1
ion S   0.751635261683080   0.253437490211959   0.587848743221267 1
ion S   0.751986641169504   0.253033467692863   0.414943403529275 1
ion S   0.002001074177277   0.503971778501046   0.587026196892966 1
ion S   0.001726805638503   0.503498727596968   0.415355027192367 1
ion S   0.251057822994572   0.502824849867629   0.587761842832873 1
ion S   0.249283074589333   0.501941845954238   0.413734837376473 1
ion S   0.501746403963530   0.503610826446064   0.579242617106801 1
ion S   0.501670673777956   0.503322645170212   0.421589718371424 1
ion S   0.751747882778926   0.502801186844855   0.587805668672819 1
ion S   0.752647788284056   0.501958986507373   0.413773596470621 1
ion S   0.002333157068207   0.753650890571748   0.587871105328830 1
ion S   0.002285086458887   0.753681847124900   0.414275283813372 1
ion S   0.251351812753288   0.753660122871531   0.587828212693408 1
ion S   0.251369265771037   0.753699703010733   0.414239374055609 1
ion S   0.502310392319528   0.754043737166907   0.587731202908661 1
ion S   0.503051779283186   0.755756053343690   0.413704814401138 1
ion S   0.751689151136243   0.754041834511905   0.587772764149773 1
ion S   0.752704035319405   0.755731067928866   0.413752900747343 1
ion O   0.501832707144553   0.503961538680391   0.663684384408645 1


# Forces in Lattice coordinates:
force Ta  -0.000692943920155   0.001635733789340  -0.000245105289076 1
force Ta   0.000265299584045   0.001098033082224  -0.000237550562075 1
force Ta   0.001624129943849   0.000263624529332   0.000004576257471 1
force Ta  -0.001975565131897   0.002106256108584  -0.000011196449548 1
force Ta  -0.001835960721463   0.000383003170626  -0.001450762975043 1
force Ta  -0.000103967560882  -0.000835657508742   0.001475676835696 1
force Ta   0.001649348346677  -0.001427467025522  -0.001427918155203 1
force Ta  -0.000175799837129  -0.001373634976829   0.000411799283533 1
force Ta   0.000804500706257  -0.000870227410938   0.001578297562387 1
force Ta  -0.000731182855213   0.000778002040925   0.003133085690449 1
force Ta   0.000881530663277   0.000116562632346   0.002788999984660 1
force Ta  -0.001008146057718   0.000127419487943   0.001354075884157 1
force Ta  -0.000108373074100   0.000474858160992   0.001930465873015 1
force Ta   0.001266446633477  -0.000879924379948   0.001329507447828 1
force Ta  -0.000057994356090   0.001585839405072  -0.000624924626186 1
force Ta  -0.001516516936340   0.000615299787694   0.000841917364462 1
force S   0.000284591635614   0.000102806868970  -0.013065458488925 1
force S   0.000362267057325  -0.000421521805737   0.007217374122442 1
force S  -0.000255661288396   0.000804748510203  -0.011286045808733 1
force S  -0.000133358065835   0.000032882220014   0.005633774207507 1
force S  -0.000690341888856   0.000658381573823  -0.012909009596766 1
force S  -0.000589309692106  -0.000259327301018   0.007723818804201 1
force S  -0.000188409676119  -0.000314313673341  -0.009211236772637 1
force S  -0.000179980620330  -0.000561246333067   0.002300875633551 1
force S   0.000336702259903   0.000409165198743  -0.009419475248714 1
force S   0.000099333779249   0.000561867163396   0.002107657877917 1
force S  -0.000930943144609   0.001005374794884  -0.008528024947908 1
force S   0.000435126452321   0.001027149440445   0.001032706749891 1
force S   0.000617088398274   0.000237097506689  -0.008484750694696 1
force S  -0.000641302181335   0.001465419911159   0.001061733003105 1
force S  -0.000715705307235   0.000879027063064  -0.009343182746846 1
force S  -0.000388106454945   0.000693818488657   0.002036312509047 1
force S  -0.000191962893040   0.000719869258111  -0.012316385302531 1
force S   0.000058284457573   0.001288070860348   0.008550945274500 1
force S  -0.000164637226960  -0.000773094910247  -0.006902682361475 1
force S   0.001323580385964  -0.000099859340003   0.002345311124153 1
force S   0.000303579675048  -0.001177606101143  -0.010729582672145 1
force S  -0.000029071430392   0.000268022410483   0.005639830635510 1
force S  -0.000103376677924  -0.000773477368350  -0.007292021830652 1
force S  -0.001258009947383   0.001097135166629   0.002070709180943 1
force S  -0.000302316593457   0.000771198370675  -0.010366461765153 1
force S   0.000067397096852   0.000311135713955   0.006550793202902 1
force S  -0.000193535465304   0.000664027768356  -0.009812738873697 1
force S   0.000017142749321   0.000296488142131   0.006899166820796 1
force S   0.000750203372306   0.000144008174257  -0.006488989466488 1
force S   0.000643628821535  -0.001409790505460   0.002377783015553 1
force S  -0.000848425493932   0.000974573616796  -0.006942067430307 1
force S  -0.000677660303300  -0.000692464656807   0.001914966332138 1
force O   0.000560860009472  -0.002035473464215   0.008643776483495 1

# Energy components:
   A_diel =       -0.5436534307819956
   Eewald =     7446.9872662193765791
       EH =     8570.3843075264285289
     Eloc =   -17312.9227561304614937
      Enl =     -220.7807736254991084
      Exc =     -477.8714904127583623
 Exc_core =      252.6474605248764078
       KE =      455.6797776273231761
  MuShift =       -0.0320573135457937
-------------------------------------
     Etot =    -1286.4519190150417671
       TS =        0.0762678361802375
-------------------------------------
        F =    -1286.5281868512220171
      muN =      -70.0407342257276326
-------------------------------------
        G =    -1216.4874526254943703

IonicMinimize: Iter:   0  G: -1216.487452625494370  |grad|_K:  1.090e-04  t[s]:   4565.81

#--- Lowdin population analysis ---
# oxidation-state Ta -0.436 -0.436 -0.431 -0.431 -0.437 -0.490 -0.437 -0.431 -0.436 -0.491 -0.490 -0.436 -0.438 -0.436 -0.437 -0.436
# magnetic-moments Ta +0.000 +0.000 +0.000 +0.000 +0.000 +0.000 +0.000 +0.000 +0.000 +0.000 +0.000 +0.000 +0.000 +0.000 +0.000 +0.000
# oxidation-state S +0.179 +0.177 +0.192 +0.189 +0.179 +0.177 +0.187 +0.187 +0.187 +0.187 +0.191 +0.188 +0.191 +0.189 +0.187 +0.187 +0.179 +0.177 +0.191 +0.188 +1.040 +0.197 +0.191 +0.188 +0.192 +0.189 +0.192 +0.189 +0.192 +0.188 +0.191 +0.188
# magnetic-moments S +0.000 +0.000 +0.000 +0.000 +0.000 +0.000 +0.000 +0.000 +0.000 +0.000 +0.000 +0.000 +0.000 +0.000 +0.000 +0.000 +0.000 +0.000 +0.000 +0.000 +0.000 +0.000 +0.000 +0.000 +0.000 +0.000 +0.000 +0.000 +0.000 +0.000 +0.000 +0.000
# oxidation-state O -0.791
# magnetic-moments O +0.000

Shifting auxilliary hamiltonian by -0.000010 to set nElectrons=408.992689
	Linear fluid (dielectric constant: 78.4, screening length: 5.74355 Bohr) occupying 0.776874 of unit cell:	Completed after 3 iterations at t[s]:   4583.18

-------- Electronic minimization -----------
	Linear fluid (dielectric constant: 78.4, screening length: 5.74355 Bohr) occupying 0.776874 of unit cell:	Completed after 0 iterations at t[s]:   4598.37
	FillingsUpdate:  mu: -0.171251800  nElectrons: 408.992689  magneticMoment: [ Abs: 0.00013  Tot: +0.00010 ]
ElecMinimize: Iter:   0  G: -1216.487452647905002  |grad|_K:  6.503e-08  alpha:  1.000e+00
	Linear fluid (dielectric constant: 78.4, screening length: 5.74355 Bohr) occupying 0.776931 of unit cell:	Completed after 3 iterations at t[s]:   4633.89
	Linear fluid (dielectric constant: 78.4, screening length: 5.74355 Bohr) occupying 0.776900 of unit cell:	Completed after 2 iterations at t[s]:   4651.35
	FillingsUpdate:  mu: -0.171251800  nElectrons: 408.994855  magneticMoment: [ Abs: 0.00012  Tot: +0.00009 ]
	SubspaceRotationAdjust: set factor to 0.127
ElecMinimize: Iter:   1  G: -1216.487453210063450  |grad|_K:  3.709e-08  alpha:  4.550e-01  linmin:  6.267e-04  t[s]:   4671.25
	Linear fluid (dielectric constant: 78.4, screening length: 5.74355 Bohr) occupying 0.776891 of unit cell:	Completed after 0 iterations at t[s]:   4684.95
	Linear fluid (dielectric constant: 78.4, screening length: 5.74355 Bohr) occupying 0.776886 of unit cell:	Completed after 0 iterations at t[s]:   4701.36
	FillingsUpdate:  mu: -0.171251800  nElectrons: 408.993661  magneticMoment: [ Abs: 0.00011  Tot: +0.00009 ]
	SubspaceRotationAdjust: set factor to 0.175
ElecMinimize: Iter:   2  G: -1216.487453446438849  |grad|_K:  3.577e-08  alpha:  6.800e-01  linmin:  1.225e-07  t[s]:   4722.92
	Linear fluid (dielectric constant: 78.4, screening length: 5.74355 Bohr) occupying 0.776844 of unit cell:	Completed after 3 iterations at t[s]:   4739.10
	Linear fluid (dielectric constant: 78.4, screening length: 5.74355 Bohr) occupying 0.776871 of unit cell:	Completed after 0 iterations at t[s]:   4756.13
	FillingsUpdate:  mu: -0.171251800  nElectrons: 408.992348  magneticMoment: [ Abs: 0.00011  Tot: +0.00009 ]
	SubspaceRotationAdjust: set factor to 0.111
ElecMinimize: Iter:   3  G: -1216.487453547526911  |grad|_K:  6.513e-08  alpha:  2.515e-01  linmin:  8.556e-04  t[s]:   4774.64
	Linear fluid (dielectric constant: 78.4, screening length: 5.74355 Bohr) occupying 0.776859 of unit cell:	Completed after 0 iterations at t[s]:   4790.13
	Linear fluid (dielectric constant: 78.4, screening length: 5.74355 Bohr) occupying 0.776868 of unit cell:	Completed after 0 iterations at t[s]:   4808.48
	FillingsUpdate:  mu: -0.171251800  nElectrons: 408.992093  magneticMoment: [ Abs: 0.00010  Tot: +0.00008 ]
	SubspaceRotationAdjust: set factor to 0.0783
ElecMinimize: Iter:   4  G: -1216.487453571403876  |grad|_K:  5.396e-08  alpha:  6.671e-02  linmin:  1.561e-08  t[s]:   4829.26
	Linear fluid (dielectric constant: 78.4, screening length: 5.74355 Bohr) occupying 0.776872 of unit cell:	Completed after 2 iterations at t[s]:   4843.28
	Linear fluid (dielectric constant: 78.4, screening length: 5.74355 Bohr) occupying 0.776869 of unit cell:	Completed after 0 iterations at t[s]:   4860.18
ElecMinimize: 	Step increased G by 7.836866e-08, reducing alpha to 2.303655e-03.
	Linear fluid (dielectric constant: 78.4, screening length: 5.74355 Bohr) occupying 0.776868 of unit cell:	Completed after 0 iterations at t[s]:   4894.14
ElecMinimize: 	Step increased G by 9.589712e-08, reducing alpha to 2.303655e-04.
	Linear fluid (dielectric constant: 78.4, screening length: 5.74355 Bohr) occupying 0.776868 of unit cell:	Completed after 0 iterations at t[s]:   4927.38
ElecMinimize: 	Step increased G by 9.773885e-08, reducing alpha to 2.303655e-05.
ElecMinimize: 	Step failed to reduce G after 3 attempts. Quitting step.
ElecMinimize: 	Undoing step.
	Linear fluid (dielectric constant: 78.4, screening length: 5.74355 Bohr) occupying 0.776868 of unit cell:	Completed after 0 iterations at t[s]:   4962.12
ElecMinimize: 	Step failed: resetting search direction.
	FillingsUpdate:  mu: -0.171251800  nElectrons: 408.992095  magneticMoment: [ Abs: 0.00010  Tot: +0.00008 ]
	SubspaceRotationAdjust: set factor to 0.117
ElecMinimize: Iter:   5  G: -1216.487453473640471  |grad|_K:  2.728e-08  alpha:  2.304e-05
	Linear fluid (dielectric constant: 78.4, screening length: 5.74355 Bohr) occupying 0.776869 of unit cell:	Completed after 0 iterations at t[s]:   4997.16
ElecMinimize: 	Predicted alpha/alphaT>3.000000, increasing alphaT to 2.001151e-01.
	Linear fluid (dielectric constant: 78.4, screening length: 5.74355 Bohr) occupying 0.776872 of unit cell:	Completed after 0 iterations at t[s]:   5015.23
ElecMinimize: 	Predicted alpha/alphaT>3.000000, increasing alphaT to 6.003453e-01.
	Linear fluid (dielectric constant: 78.4, screening length: 5.74355 Bohr) occupying 0.776882 of unit cell:	Completed after 0 iterations at t[s]:   5030.72
	Linear fluid (dielectric constant: 78.4, screening length: 5.74355 Bohr) occupying 0.776894 of unit cell:	Completed after 2 iterations at t[s]:   5048.03
ElecMinimize: 	Step increased G by 9.132918e-09, reducing alpha to 1.143457e-01.
	Linear fluid (dielectric constant: 78.4, screening length: 5.74355 Bohr) occupying 0.776870 of unit cell:	Completed after 2 iterations at t[s]:   5079.90
	FillingsUpdate:  mu: -0.171251800  nElectrons: 408.992321  magneticMoment: [ Abs: 0.00010  Tot: +0.00008 ]
	SubspaceRotationAdjust: set factor to 0.121
ElecMinimize: Iter:   6  G: -1216.487453527106254  |grad|_K:  2.128e-08  alpha:  1.143e-01  linmin: -1.937e-03  t[s]:   5099.33
	Linear fluid (dielectric constant: 78.4, screening length: 5.74355 Bohr) occupying 0.776875 of unit cell:	Completed after 0 iterations at t[s]:   5113.82
ElecMinimize: 	Predicted alpha/alphaT>3.000000, increasing alphaT to 3.430372e-01.
	Linear fluid (dielectric constant: 78.4, screening length: 5.74355 Bohr) occupying 0.776883 of unit cell:	Completed after 0 iterations at t[s]:   5129.60
	Linear fluid (dielectric constant: 78.4, screening length: 5.74355 Bohr) occupying 0.776900 of unit cell:	Completed after 2 iterations at t[s]:   5149.05
ElecMinimize: 	Step increased G by 2.347656e-08, reducing alpha to 7.631953e-02.
	Linear fluid (dielectric constant: 78.4, screening length: 5.74355 Bohr) occupying 0.776873 of unit cell:	Completed after 2 iterations at t[s]:   5181.30
	FillingsUpdate:  mu: -0.171251800  nElectrons: 408.992569  magneticMoment: [ Abs: 0.00010  Tot: +0.00008 ]
	SubspaceRotationAdjust: set factor to 0.14
ElecMinimize: Iter:   7  G: -1216.487453572716959  |grad|_K:  1.485e-08  alpha:  7.632e-02  linmin: -1.249e-03  t[s]:   5202.20
	Linear fluid (dielectric constant: 78.4, screening length: 5.74355 Bohr) occupying 0.776875 of unit cell:	Completed after 0 iterations at t[s]:   5217.01
ElecMinimize: 	Predicted alpha/alphaT>3.000000, increasing alphaT to 2.289586e-01.
	Linear fluid (dielectric constant: 78.4, screening length: 5.74355 Bohr) occupying 0.776878 of unit cell:	Completed after 0 iterations at t[s]:   5235.06
	Linear fluid (dielectric constant: 78.4, screening length: 5.74355 Bohr) occupying 0.776885 of unit cell:	Completed after 0 iterations at t[s]:   5250.75
	FillingsUpdate:  mu: -0.171251800  nElectrons: 408.993608  magneticMoment: [ Abs: 0.00010  Tot: +0.00008 ]
	SubspaceRotationAdjust: set factor to 0.186
ElecMinimize: Iter:   8  G: -1216.487453643469735  |grad|_K:  1.603e-08  alpha:  5.874e-01  linmin:  1.640e-06  t[s]:   5271.23
	Linear fluid (dielectric constant: 78.4, screening length: 5.74355 Bohr) occupying 0.776905 of unit cell:	Completed after 3 iterations at t[s]:   5286.50
	Linear fluid (dielectric constant: 78.4, screening length: 5.74355 Bohr) occupying 0.776888 of unit cell:	Completed after 0 iterations at t[s]:   5303.10
	FillingsUpdate:  mu: -0.171251800  nElectrons: 408.993832  magneticMoment: [ Abs: 0.00010  Tot: +0.00008 ]
	SubspaceRotationAdjust: set factor to 0.113
ElecMinimize: Iter:   9  G: -1216.487453684050479  |grad|_K:  5.589e-08  alpha:  8.056e-02  linmin:  4.002e-04  t[s]:   5321.28
ElecMinimize: 	Bad step direction: g.d > 0.
ElecMinimize: 	Undoing step.
	Linear fluid (dielectric constant: 78.4, screening length: 5.74355 Bohr) occupying 0.776888 of unit cell:	Completed after 0 iterations at t[s]:   5335.53
ElecMinimize: 	Step failed: resetting search direction.
	FillingsUpdate:  mu: -0.171251800  nElectrons: 408.993832  magneticMoment: [ Abs: 0.00010  Tot: +0.00008 ]
	SubspaceRotationAdjust: set factor to 0.0767
ElecMinimize: Iter:  10  G: -1216.487453684055708  |grad|_K:  4.606e-08  alpha:  0.000e+00
	Linear fluid (dielectric constant: 78.4, screening length: 5.74355 Bohr) occupying 0.776881 of unit cell:	Completed after 0 iterations at t[s]:   5368.65
ElecMinimize: 	Predicted alpha/alphaT>3.000000, increasing alphaT to 2.416715e-01.
	Linear fluid (dielectric constant: 78.4, screening length: 5.74355 Bohr) occupying 0.776867 of unit cell:	Completed after 1 iterations at t[s]:   5386.03
	Linear fluid (dielectric constant: 78.4, screening length: 5.74355 Bohr) occupying 0.776878 of unit cell:	Completed after 0 iterations at t[s]:   5403.13
ElecMinimize: 	Step increased G by 1.425610e-08, reducing alpha to 1.124967e-02.
	Linear fluid (dielectric constant: 78.4, screening length: 5.74355 Bohr) occupying 0.776887 of unit cell:	Completed after 0 iterations at t[s]:   5436.73
ElecMinimize: 	Step increased G by 1.069998e-08, reducing alpha to 1.124967e-03.
	Linear fluid (dielectric constant: 78.4, screening length: 5.74355 Bohr) occupying 0.776888 of unit cell:	Completed after 0 iterations at t[s]:   5469.35
ElecMinimize: 	Step increased G by 1.043099e-08, reducing alpha to 1.124967e-04.
ElecMinimize: 	Step failed to reduce G after 3 attempts. Quitting step.
ElecMinimize: 	Undoing step.
	Linear fluid (dielectric constant: 78.4, screening length: 5.74355 Bohr) occupying 0.776888 of unit cell:	Completed after 0 iterations at t[s]:   5500.77
ElecMinimize: 	Step failed along negative gradient direction.
ElecMinimize: Probably at roundoff error limit. (Stopping)
Setting wave functions to eigenvectors of Hamiltonian

# Ionic positions in lattice coordinates:
ion Ta   0.169633615711519   0.086479702662586   0.501227741195210 1
ion Ta   0.416865920838595   0.086492989176800   0.501209726793944 1
ion Ta   0.668666450460932   0.086857434865195   0.501477056701277 1
ion Ta   0.918193428134875   0.086850486607938   0.501493119223916 1
ion Ta   0.167683947353153   0.336369317311102   0.501039876450408 1
ion Ta   0.413578667350548   0.327144316061118   0.500264409954772 1
ion Ta   0.668684633105115   0.336369569098982   0.501054773669234 1
ion Ta   0.918181306399270   0.336352841737605   0.501453584434285 1
ion Ta   0.169597074408699   0.588195529265592   0.501029254784660 1
ion Ta   0.413538526506422   0.591539543586340   0.500065429227670 1
ion Ta   0.677974174112893   0.591522126928932   0.500118356595057 1
ion Ta   0.918576003349432   0.588184122752045   0.501067545057837 1
ion Ta   0.168337355671545   0.836689806577155   0.501090389679590 1
ion Ta   0.416846981359507   0.835450197226809   0.501053404804964 1
ion Ta   0.668687781497226   0.837396126684624   0.500945326807489 1
ion Ta   0.918585643209036   0.835422159949152   0.501114794750904 1
ion S   0.001940480351226   0.003025519169169   0.587121633909574 1
ion S   0.001857021578997   0.003313377267459   0.415473470224808 1
ion S   0.251336879167534   0.002637368950352   0.587956842667210 1
ion S   0.251425121807595   0.002852977667646   0.414385695329950 1
ion S   0.501091889369854   0.003016577064858   0.587089171111533 1
ion S   0.501489499805869   0.003361364506583   0.415433921370947 1
ion S   0.751591352227329   0.003189074556589   0.587816481528312 1
ion S   0.752062520805229   0.004099074653333   0.414913768231055 1
ion S   0.001826949461773   0.253446257789835   0.587843051207214 1
ion S   0.001040917188355   0.253010500435224   0.414945076505970 1
ion S   0.251035471906139   0.253400015211441   0.587908038180255 1
ion S   0.249382333969134   0.252373277475716   0.413892662861057 1
ion S   0.502362673831094   0.253390376271949   0.587911715931168 1
ion S   0.503016249004072   0.252394340563753   0.413887337943286 1
ion S   0.751634658743263   0.253438263736026   0.587841968511385 1
ion S   0.751986532660656   0.253034196171863   0.414946322880793 1
ion S   0.002001405762034   0.503972768135162   0.587016889345951 1
ion S   0.001728261497239   0.503501175994563   0.415363496284766 1
ion S   0.251056641466866   0.502822727036598   0.587757147157258 1
ion S   0.249285732533978   0.501942705230279   0.413738019960365 1
ion S   0.501745782021134   0.503608345085924   0.579234661338735 1
ion S   0.501670872742821   0.503322855476589   0.421595707518675 1
ion S   0.751746829741694   0.502799127655539   0.587800641323379 1
ion S   0.752646273780567   0.501959648425866   0.413776545124269 1
ion S   0.002333310466138   0.753651872110185   0.587863458899297 1
ion S   0.002285533749937   0.753682249627493   0.414282048999178 1
ion S   0.251352082283803   0.753660993360227   0.587821037974050 1
ion S   0.251369591917105   0.753700021826854   0.414246436016902 1
ion S   0.502312100422941   0.754044506347142   0.587726859653275 1
ion S   0.503051628548493   0.755753441198630   0.413708024647461 1
ion S   0.751688369467258   0.754042669444583   0.587768034922470 1
ion S   0.752701859209335   0.755728575041812   0.413755716725446 1
ion O   0.501831724041758   0.503957523018769   0.663692932582886 1


# Forces in Lattice coordinates:
force Ta  -0.000191182425321   0.001969440460656  -0.001847058663841 1
force Ta  -0.000266424652617   0.001942544449612  -0.001813254720454 1
force Ta   0.001408083299352   0.000242933661359  -0.001705524051405 1
force Ta  -0.001729120687726   0.001840281927986  -0.001742600015944 1
force Ta  -0.001036842286908   0.000415702918019  -0.002727893443046 1
force Ta  -0.000123248458395  -0.001082563612968  -0.000824815914204 1
force Ta   0.000866444132949  -0.000593146574183  -0.002723022390103 1
force Ta  -0.000178423286038  -0.001029782692771  -0.001335566123917 1
force Ta   0.001630147623970  -0.001200092575618   0.000023534692744 1
force Ta  -0.000899285038796   0.000963956915169   0.000943249305464 1
force Ta   0.001018941392534   0.000153866225488   0.000557405347266 1
force Ta  -0.001788150497814   0.000613328760414  -0.000219569417515 1
force Ta  -0.000128234573305   0.000456577417398   0.000046887447291 1
force Ta   0.001602393896990  -0.001701054376672  -0.000227753378645 1
force Ta  -0.000030572218825   0.000756962939055  -0.001888721100673 1
force Ta  -0.001825899457957   0.000165490489209  -0.000773053712092 1
force S  -0.000173628033727   0.000517651778552  -0.005577843454709 1
force S  -0.000100332737297   0.000126178629400  -0.000195773085274 1
force S  -0.000216745996190   0.001135721038320  -0.003450436652351 1
force S  -0.000135014246687   0.000237571908688  -0.001675099086454 1
force S  -0.000165163976112   0.000512970660142  -0.005271808858769 1
force S  -0.000115598876154  -0.000127669586772   0.000037791584294 1
force S  -0.000166733980466  -0.000080993351085  -0.001912243093687 1
force S  -0.000153646484451   0.000183796287764  -0.004334298550959 1
force S   0.000149416332631   0.000380455442370  -0.002048549291429 1
force S  -0.000476474410121   0.000487437653394  -0.004513963262127 1
force S  -0.000584432614082   0.001233346668764  -0.001515544374933 1
force S   0.000077499490763   0.000764919281334  -0.003263052185426 1
force S   0.000293058882605   0.000771341887327  -0.001506542473654 1
force S  -0.000302974097252   0.000869162168840  -0.003235723029287 1
force S  -0.000460710102138   0.000621475285326  -0.001967400955877 1
force S   0.000212290324809   0.000050641239918  -0.004599016193046 1
force S  -0.000125458200528   0.000243201357290  -0.004772541801427 1
force S   0.000043025250719   0.000674743260333   0.000894466252604 1
[...]
	Linear fluid (dielectric constant: 78.4, screening length: 5.74355 Bohr) occupying 0.756324 of unit cell:	Completed after 0 iterations at t[s]:  14660.89
ElecMinimize: 	Step increased G by 1.377612e-08, reducing alpha to 7.030919e-03.
	Linear fluid (dielectric constant: 78.4, screening length: 5.74355 Bohr) occupying 0.756324 of unit cell:	Completed after 0 iterations at t[s]:  14686.01
ElecMinimize: 	Step increased G by 8.746383e-09, reducing alpha to 7.030919e-04.
	Linear fluid (dielectric constant: 78.4, screening length: 5.74355 Bohr) occupying 0.756324 of unit cell:	Completed after 0 iterations at t[s]:  14712.47
ElecMinimize: 	Step increased G by 8.666575e-09, reducing alpha to 7.030919e-05.
ElecMinimize: 	Step failed to reduce G after 3 attempts. Quitting step.
ElecMinimize: 	Undoing step.
	Linear fluid (dielectric constant: 78.4, screening length: 5.74355 Bohr) occupying 0.756324 of unit cell:	Completed after 0 iterations at t[s]:  14739.25
ElecMinimize: 	Step failed: resetting search direction.
	FillingsUpdate:  mu: -0.216453400  nElectrons: 405.787665  magneticMoment: [ Abs: 0.00196  Tot: +0.00187 ]
	SubspaceRotationAdjust: set factor to 0.115
ElecMinimize: Iter:  26  G: -1198.081041043923278  |grad|_K:  2.163e-08  alpha:  7.031e-05
	Linear fluid (dielectric constant: 78.4, screening length: 5.74355 Bohr) occupying 0.756324 of unit cell:	Completed after 0 iterations at t[s]:  14767.69
	Linear fluid (dielectric constant: 78.4, screening length: 5.74355 Bohr) occupying 0.756324 of unit cell:	Completed after 0 iterations at t[s]:  14782.09
	FillingsUpdate:  mu: -0.216453400  nElectrons: 405.787307  magneticMoment: [ Abs: 0.00192  Tot: +0.00186 ]
	SubspaceRotationAdjust: set factor to 0.149
ElecMinimize: Iter:  27  G: -1198.081041093956173  |grad|_K:  1.283e-08  alpha:  3.950e-01  linmin:  5.135e-04  t[s]:  14798.53
	Linear fluid (dielectric constant: 78.4, screening length: 5.74355 Bohr) occupying 0.756324 of unit cell:	Completed after 1 iterations at t[s]:  14810.69
	Linear fluid (dielectric constant: 78.4, screening length: 5.74355 Bohr) occupying 0.756324 of unit cell:	Completed after 0 iterations at t[s]:  14824.73
ElecMinimize: 	Step increased G by 4.642106e-08, reducing alpha to 8.307756e-03.
	Linear fluid (dielectric constant: 78.4, screening length: 5.74355 Bohr) occupying 0.756324 of unit cell:	Completed after 0 iterations at t[s]:  14850.32
ElecMinimize: 	Step increased G by 4.807248e-08, reducing alpha to 8.307756e-04.
	Linear fluid (dielectric constant: 78.4, screening length: 5.74355 Bohr) occupying 0.756324 of unit cell:	Completed after 0 iterations at t[s]:  14877.07
ElecMinimize: 	Step increased G by 4.828644e-08, reducing alpha to 8.307756e-05.
ElecMinimize: 	Step failed to reduce G after 3 attempts. Quitting step.
ElecMinimize: 	Undoing step.
	Linear fluid (dielectric constant: 78.4, screening length: 5.74355 Bohr) occupying 0.756324 of unit cell:	Completed after 0 iterations at t[s]:  14902.81
ElecMinimize: 	Step failed: resetting search direction.
	FillingsUpdate:  mu: -0.216453400  nElectrons: 405.787306  magneticMoment: [ Abs: 0.00192  Tot: +0.00186 ]
	SubspaceRotationAdjust: set factor to 0.165
ElecMinimize: Iter:  28  G: -1198.081041045669281  |grad|_K:  1.696e-08  alpha:  8.308e-05
	Linear fluid (dielectric constant: 78.4, screening length: 5.74355 Bohr) occupying 0.756324 of unit cell:	Completed after 0 iterations at t[s]:  14931.02
	Linear fluid (dielectric constant: 78.4, screening length: 5.74355 Bohr) occupying 0.756324 of unit cell:	Completed after 0 iterations at t[s]:  14945.16
	FillingsUpdate:  mu: -0.216453400  nElectrons: 405.787335  magneticMoment: [ Abs: 0.00180  Tot: +0.00174 ]
	SubspaceRotationAdjust: set factor to 0.115
ElecMinimize: Iter:  29  G: -1198.081041057428820  |grad|_K:  1.240e-08  alpha:  2.369e-01  linmin: -1.811e-02  t[s]:  14962.00
	Linear fluid (dielectric constant: 78.4, screening length: 5.74355 Bohr) occupying 0.756324 of unit cell:	Completed after 0 iterations at t[s]:  14974.08
	Linear fluid (dielectric constant: 78.4, screening length: 5.74355 Bohr) occupying 0.756324 of unit cell:	Completed after 0 iterations at t[s]:  14987.21
	FillingsUpdate:  mu: -0.216453400  nElectrons: 405.787361  magneticMoment: [ Abs: 0.00170  Tot: +0.00164 ]
	SubspaceRotationAdjust: set factor to 0.0848
ElecMinimize: Iter:  30  G: -1198.081041060095913  |grad|_K:  1.033e-08  alpha:  1.304e-01  linmin: -1.333e-02  t[s]:  15002.21
	Linear fluid (dielectric constant: 78.4, screening length: 5.74355 Bohr) occupying 0.756324 of unit cell:	Completed after 0 iterations at t[s]:  15015.03
	Linear fluid (dielectric constant: 78.4, screening length: 5.74355 Bohr) occupying 0.756324 of unit cell:	Completed after 0 iterations at t[s]:  15028.87
	FillingsUpdate:  mu: -0.216453400  nElectrons: 405.787378  magneticMoment: [ Abs: 0.00164  Tot: +0.00157 ]
	SubspaceRotationAdjust: set factor to 0.0648
ElecMinimize: Iter:  31  G: -1198.081041061645692  |grad|_K:  8.851e-09  alpha:  7.494e-02  linmin: -1.377e-02  t[s]:  15044.97
ElecMinimize: Converged (|Delta G|<1.000000e-08 for 2 iters).
Setting wave functions to eigenvectors of Hamiltonian
IonicMinimize: 	Wolfe criterion not satisfied: alpha: 1  (E-E0)/|gdotd0|: 1.21176  gdotd/gdotd0: -2.78801 (taking cubic step)
Shifting auxilliary hamiltonian by 0.000001 to set nElectrons=405.787378
	Linear fluid (dielectric constant: 78.4, screening length: 5.74355 Bohr) occupying 0.756214 of unit cell:	Completed after 11 iterations at t[s]:  15072.24

-------- Electronic minimization -----------
	Linear fluid (dielectric constant: 78.4, screening length: 5.74355 Bohr) occupying 0.756214 of unit cell:	Completed after 0 iterations at t[s]:  15083.58
	FillingsUpdate:  mu: -0.216453400  nElectrons: 405.787378  magneticMoment: [ Abs: 0.01896  Tot: -0.00158 ]
ElecMinimize: Iter:   0  G: -1198.080553465012144  |grad|_K:  1.270e-06  alpha:  1.000e+00
	Linear fluid (dielectric constant: 78.4, screening length: 5.74355 Bohr) occupying 0.756217 of unit cell:	Completed after 10 iterations at t[s]:  15115.33
	Linear fluid (dielectric constant: 78.4, screening length: 5.74355 Bohr) occupying 0.756216 of unit cell:	Completed after 8 iterations at t[s]:  15130.48
	FillingsUpdate:  mu: -0.216453400  nElectrons: 405.800903  magneticMoment: [ Abs: 0.01187  Tot: -0.00156 ]
	SubspaceRotationAdjust: set factor to 0.0776
ElecMinimize: Iter:   1  G: -1198.080834158005700  |grad|_K:  5.108e-07  alpha:  6.348e-01  linmin:  1.901e-04  t[s]:  15146.47
	Linear fluid (dielectric constant: 78.4, screening length: 5.74355 Bohr) occupying 0.756213 of unit cell:	Completed after 9 iterations at t[s]:  15161.78
	Linear fluid (dielectric constant: 78.4, screening length: 5.74355 Bohr) occupying 0.756212 of unit cell:	Completed after 2 iterations at t[s]:  15177.19
	FillingsUpdate:  mu: -0.216453400  nElectrons: 405.783138  magneticMoment: [ Abs: 0.00877  Tot: -0.00154 ]
	SubspaceRotationAdjust: set factor to 0.0796
ElecMinimize: Iter:   2  G: -1198.080886206843161  |grad|_K:  4.074e-07  alpha:  7.279e-01  linmin: -5.844e-04  t[s]:  15194.24
	Linear fluid (dielectric constant: 78.4, screening length: 5.74355 Bohr) occupying 0.756219 of unit cell:	Completed after 4 iterations at t[s]:  15206.76
	Linear fluid (dielectric constant: 78.4, screening length: 5.74355 Bohr) occupying 0.756223 of unit cell:	Completed after 7 iterations at t[s]:  15221.12
	FillingsUpdate:  mu: -0.216453400  nElectrons: 405.789765  magneticMoment: [ Abs: 0.00565  Tot: -0.00142 ]
	SubspaceRotationAdjust: set factor to 0.0994
ElecMinimize: Iter:   3  G: -1198.080940446327531  |grad|_K:  4.699e-07  alpha:  1.186e+00  linmin:  1.396e-04  t[s]:  15237.32
	Linear fluid (dielectric constant: 78.4, screening length: 5.74355 Bohr) occupying 0.756240 of unit cell:	Completed after 3 iterations at t[s]:  15250.65
	Linear fluid (dielectric constant: 78.4, screening length: 5.74355 Bohr) occupying 0.756240 of unit cell:	Completed after 0 iterations at t[s]:  15264.17
	FillingsUpdate:  mu: -0.216453400  nElectrons: 405.789880  magneticMoment: [ Abs: 0.00747  Tot: -0.00126 ]
	SubspaceRotationAdjust: set factor to 0.113
ElecMinimize: Iter:   4  G: -1198.081012328917495  |grad|_K:  5.080e-07  alpha:  1.203e+00  linmin: -1.299e-05  t[s]:  15279.36
	Linear fluid (dielectric constant: 78.4, screening length: 5.74355 Bohr) occupying 0.756255 of unit cell:	Completed after 8 iterations at t[s]:  15293.89
	Linear fluid (dielectric constant: 78.4, screening length: 5.74355 Bohr) occupying 0.756250 of unit cell:	Completed after 4 iterations at t[s]:  15308.72
	FillingsUpdate:  mu: -0.216453400  nElectrons: 405.775965  magneticMoment: [ Abs: 0.00784  Tot: -0.00116 ]
	SubspaceRotationAdjust: set factor to 0.11
ElecMinimize: Iter:   5  G: -1198.081070385343992  |grad|_K:  4.761e-07  alpha:  8.152e-01  linmin:  7.463e-05  t[s]:  15324.45
	Linear fluid (dielectric constant: 78.4, screening length: 5.74355 Bohr) occupying 0.756270 of unit cell:	Completed after 10 iterations at t[s]:  15339.09
	Linear fluid (dielectric constant: 78.4, screening length: 5.74355 Bohr) occupying 0.756262 of unit cell:	Completed after 8 iterations at t[s]:  15354.12
	FillingsUpdate:  mu: -0.216453400  nElectrons: 405.793657  magneticMoment: [ Abs: 0.00653  Tot: -0.00114 ]
	SubspaceRotationAdjust: set factor to 0.0815
ElecMinimize: Iter:   6  G: -1198.081099788932534  |grad|_K:  3.196e-07  alpha:  4.883e-01  linmin: -4.064e-05  t[s]:  15369.31
	Linear fluid (dielectric constant: 78.4, screening length: 5.74355 Bohr) occupying 0.756259 of unit cell:	Completed after 7 iterations at t[s]:  15382.97
	Linear fluid (dielectric constant: 78.4, screening length: 5.74355 Bohr) occupying 0.756258 of unit cell:	Completed after 1 iterations at t[s]:  15397.19
	FillingsUpdate:  mu: -0.216453400  nElectrons: 405.785376  magneticMoment: [ Abs: 0.00452  Tot: -0.00118 ]
	SubspaceRotationAdjust: set factor to 0.0745
ElecMinimize: Iter:   7  G: -1198.081115834164621  |grad|_K:  2.049e-07  alpha:  5.707e-01  linmin: -3.390e-04  t[s]:  15413.54
	Linear fluid (dielectric constant: 78.4, screening length: 5.74355 Bohr) occupying 0.756254 of unit cell:	Completed after 2 iterations at t[s]:  15426.36
	Linear fluid (dielectric constant: 78.4, screening length: 5.74355 Bohr) occupying 0.756254 of unit cell:	Completed after 0 iterations at t[s]:  15439.20
	FillingsUpdate:  mu: -0.216453400  nElectrons: 405.784847  magneticMoment: [ Abs: 0.00289  Tot: -0.00126 ]
	SubspaceRotationAdjust: set factor to 0.086
ElecMinimize: Iter:   8  G: -1198.081122618667678  |grad|_K:  1.385e-07  alpha:  5.746e-01  linmin: -2.653e-04  t[s]:  15455.23
	Linear fluid (dielectric constant: 78.4, screening length: 5.74355 Bohr) occupying 0.756252 of unit cell:	Completed after 3 iterations at t[s]:  15468.40
	Linear fluid (dielectric constant: 78.4, screening length: 5.74355 Bohr) occupying 0.756253 of unit cell:	Completed after 0 iterations at t[s]:  15482.05
	FillingsUpdate:  mu: -0.216453400  nElectrons: 405.789067  magneticMoment: [ Abs: 0.00194  Tot: -0.00134 ]
	SubspaceRotationAdjust: set factor to 0.0924
ElecMinimize: Iter:   9  G: -1198.081125498386882  |grad|_K:  8.465e-08  alpha:  5.403e-01  linmin:  3.114e-04  t[s]:  15497.26
	Linear fluid (dielectric constant: 78.4, screening length: 5.74355 Bohr) occupying 0.756252 of unit cell:	Completed after 0 iterations at t[s]:  15509.41
	Linear fluid (dielectric constant: 78.4, screening length: 5.74355 Bohr) occupying 0.756252 of unit cell:	Completed after 0 iterations at t[s]:  15523.47
	FillingsUpdate:  mu: -0.216453400  nElectrons: 405.790109  magneticMoment: [ Abs: 0.00165  Tot: -0.00135 ]
	SubspaceRotationAdjust: set factor to 0.113
ElecMinimize: Iter:  10  G: -1198.081126481310548  |grad|_K:  5.897e-08  alpha:  5.076e-01  linmin:  8.491e-06  t[s]:  15538.84
	Linear fluid (dielectric constant: 78.4, screening length: 5.74355 Bohr) occupying 0.756252 of unit cell:	Completed after 0 iterations at t[s]:  15551.10
	Linear fluid (dielectric constant: 78.4, screening length: 5.74355 Bohr) occupying 0.756252 of unit cell:	Completed after 2 iterations at t[s]:  15565.30
	FillingsUpdate:  mu: -0.216453400  nElectrons: 405.790167  magneticMoment: [ Abs: 0.00163  Tot: -0.00133 ]
	SubspaceRotationAdjust: set factor to 0.14
ElecMinimize: Iter:  11  G: -1198.081126944942753  |grad|_K:  5.132e-08  alpha:  6.627e-01  linmin:  1.807e-03  t[s]:  15581.08
	Linear fluid (dielectric constant: 78.4, screening length: 5.74355 Bohr) occupying 0.756252 of unit cell:	Completed after 0 iterations at t[s]:  15593.54
	Linear fluid (dielectric constant: 78.4, screening length: 5.74355 Bohr) occupying 0.756252 of unit cell:	Completed after 0 iterations at t[s]:  15607.49
	FillingsUpdate:  mu: -0.216453400  nElectrons: 405.787858  magneticMoment: [ Abs: 0.00193  Tot: -0.00148 ]
	SubspaceRotationAdjust: set factor to 0.184
ElecMinimize: Iter:  12  G: -1198.081127404109111  |grad|_K:  4.672e-08  alpha:  7.075e-01  linmin: -4.363e-04  t[s]:  15623.63
	Linear fluid (dielectric constant: 78.4, screening length: 5.74355 Bohr) occupying 0.756251 of unit cell:	Completed after 3 iterations at t[s]:  15636.65
	Linear fluid (dielectric constant: 78.4, screening length: 5.74355 Bohr) occupying 0.756251 of unit cell:	Completed after 2 iterations at t[s]:  15650.72
ElecMinimize: 	Step increased G by 4.798267e-09, reducing alpha to 2.684997e-02.
	Linear fluid (dielectric constant: 78.4, screening length: 5.74355 Bohr) occupying 0.756252 of unit cell:	Completed after 0 iterations at t[s]:  15675.89
ElecMinimize: 	Step increased G by 8.491270e-09, reducing alpha to 2.684997e-03.
	Linear fluid (dielectric constant: 78.4, screening length: 5.74355 Bohr) occupying 0.756252 of unit cell:	Completed after 0 iterations at t[s]:  15701.16
ElecMinimize: 	Step increased G by 1.381613e-08, reducing alpha to 2.684997e-04.
ElecMinimize: 	Step failed to reduce G after 3 attempts. Quitting step.
ElecMinimize: 	Undoing step.
	Linear fluid (dielectric constant: 78.4, screening length: 5.74355 Bohr) occupying 0.756252 of unit cell:	Completed after 0 iterations at t[s]:  15726.78
ElecMinimize: 	Step failed: resetting search direction.
	FillingsUpdate:  mu: -0.216453400  nElectrons: 405.787844  magneticMoment: [ Abs: 0.00193  Tot: -0.00148 ]
	SubspaceRotationAdjust: set factor to 0.141
ElecMinimize: Iter:  13  G: -1198.081127390238862  |grad|_K:  7.525e-08  alpha:  2.685e-04
	Linear fluid (dielectric constant: 78.4, screening length: 5.74355 Bohr) occupying 0.756255 of unit cell:	Completed after 6 iterations at t[s]:  15756.59
	Linear fluid (dielectric constant: 78.4, screening length: 5.74355 Bohr) occupying 0.756253 of unit cell:	Completed after 7 iterations at t[s]:  15772.20
	FillingsUpdate:  mu: -0.216453400  nElectrons: 405.790104  magneticMoment: [ Abs: 0.00188  Tot: -0.00148 ]
	SubspaceRotationAdjust: set factor to 0.078
ElecMinimize: Iter:  14  G: -1198.081127429188655  |grad|_K:  5.952e-08  alpha:  1.541e-01  linmin:  1.084e-02  t[s]:  15788.14
	Linear fluid (dielectric constant: 78.4, screening length: 5.74355 Bohr) occupying 0.756252 of unit cell:	Completed after 0 iterations at t[s]:  15800.42
ElecMinimize: 	Predicted alpha/alphaT>3.000000, increasing alphaT to 4.622471e-01.
	Linear fluid (dielectric constant: 78.4, screening length: 5.74355 Bohr) occupying 0.756252 of unit cell:	Completed after 0 iterations at t[s]:  15813.76
	Linear fluid (dielectric constant: 78.4, screening length: 5.74355 Bohr) occupying 0.756252 of unit cell:	Completed after 0 iterations at t[s]:  15825.11
	FillingsUpdate:  mu: -0.216453400  nElectrons: 405.788726  magneticMoment: [ Abs: 0.00168  Tot: -0.00144 ]
	SubspaceRotationAdjust: set factor to 0.0856
ElecMinimize: Iter:  15  G: -1198.081127802482797  |grad|_K:  5.594e-08  alpha:  5.468e-01  linmin:  1.592e-04  t[s]:  15839.50
	Linear fluid (dielectric constant: 78.4, screening length: 5.74355 Bohr) occupying 0.756250 of unit cell:	Completed after 7 iterations at t[s]:  15852.21
	Linear fluid (dielectric constant: 78.4, screening length: 5.74355 Bohr) occupying 0.756251 of unit cell:	Completed after 2 iterations at t[s]:  15863.77
	FillingsUpdate:  mu: -0.216453400  nElectrons: 405.786861  magneticMoment: [ Abs: 0.00162  Tot: -0.00140 ]
	SubspaceRotationAdjust: set factor to 0.0634
ElecMinimize: Iter:  16  G: -1198.081127854203032  |grad|_K:  4.281e-08  alpha:  2.170e-01  linmin:  1.631e-03  t[s]:  15878.19
	Linear fluid (dielectric constant: 78.4, screening length: 5.74355 Bohr) occupying 0.756251 of unit cell:	Completed after 0 iterations at t[s]:  15889.09
	Linear fluid (dielectric constant: 78.4, screening length: 5.74355 Bohr) occupying 0.756251 of unit cell:	Completed after 0 iterations at t[s]:  15900.74
	FillingsUpdate:  mu: -0.216453400  nElectrons: 405.786453  magneticMoment: [ Abs: 0.00169  Tot: -0.00151 ]
	SubspaceRotationAdjust: set factor to 0.0638
ElecMinimize: Iter:  17  G: -1198.081127977555525  |grad|_K:  3.093e-08  alpha:  2.717e-01  linmin: -2.826e-03  t[s]:  15915.32
	Linear fluid (dielectric constant: 78.4, screening length: 5.74355 Bohr) occupying 0.756251 of unit cell:	Completed after 0 iterations at t[s]:  15926.31
ElecMinimize: 	Predicted alpha/alphaT>3.000000, increasing alphaT to 8.151936e-01.
	Linear fluid (dielectric constant: 78.4, screening length: 5.74355 Bohr) occupying 0.756252 of unit cell:	Completed after 3 iterations at t[s]:  15938.21
	Linear fluid (dielectric constant: 78.4, screening length: 5.74355 Bohr) occupying 0.756252 of unit cell:	Completed after 0 iterations at t[s]:  15949.61
	FillingsUpdate:  mu: -0.216453400  nElectrons: 405.787133  magneticMoment: [ Abs: 0.00188  Tot: -0.00173 ]
	SubspaceRotationAdjust: set factor to 0.0571
ElecMinimize: Iter:  18  G: -1198.081128093044526  |grad|_K:  2.931e-08  alpha:  3.695e-01  linmin:  2.437e-03  t[s]:  15964.09
	Linear fluid (dielectric constant: 78.4, screening length: 5.74355 Bohr) occupying 0.756252 of unit cell:	Completed after 0 iterations at t[s]:  15974.95
	Linear fluid (dielectric constant: 78.4, screening length: 5.74355 Bohr) occupying 0.756252 of unit cell:	Completed after 0 iterations at t[s]:  15986.32
	FillingsUpdate:  mu: -0.216453400  nElectrons: 405.787442  magneticMoment: [ Abs: 0.00207  Tot: -0.00194 ]
	SubspaceRotationAdjust: set factor to 0.0736
ElecMinimize: Iter:  19  G: -1198.081128152711017  |grad|_K:  2.276e-08  alpha:  3.625e-01  linmin: -8.937e-04  t[s]:  16000.59
	Linear fluid (dielectric constant: 78.4, screening length: 5.74355 Bohr) occupying 0.756253 of unit cell:	Completed after 0 iterations at t[s]:  16011.72
	Linear fluid (dielectric constant: 78.4, screening length: 5.74355 Bohr) occupying 0.756254 of unit cell:	Completed after 1 iterations at t[s]:  16023.73
ElecMinimize: 	Step increased G by 4.308390e-08, reducing alpha to 6.752660e-02.
	Linear fluid (dielectric constant: 78.4, screening length: 5.74355 Bohr) occupying 0.756253 of unit cell:	Completed after 0 iterations at t[s]:  16046.59
ElecMinimize: 	Step increased G by 2.398815e-08, reducing alpha to 6.752660e-03.
	Linear fluid (dielectric constant: 78.4, screening length: 5.74355 Bohr) occupying 0.756252 of unit cell:	Completed after 0 iterations at t[s]:  16070.05
ElecMinimize: 	Step increased G by 3.310970e-08, reducing alpha to 6.752660e-04.
ElecMinimize: 	Step failed to reduce G after 3 attempts. Quitting step.
ElecMinimize: 	Undoing step.
	Linear fluid (dielectric constant: 78.4, screening length: 5.74355 Bohr) occupying 0.756252 of unit cell:	Completed after 0 iterations at t[s]:  16092.80
ElecMinimize: 	Step failed: resetting search direction.
	FillingsUpdate:  mu: -0.216453400  nElectrons: 405.787440  magneticMoment: [ Abs: 0.00208  Tot: -0.00194 ]
	SubspaceRotationAdjust: set factor to 0.088
ElecMinimize: Iter:  20  G: -1198.081128119497635  |grad|_K:  2.098e-08  alpha:  6.753e-04
