
*************** JDFTx 1.5.0  ***************

Start date and time: Fri Jan 29 23:04:06 2021
Executable jdftx_gpu with command-line: -i Charged.in -o Charged.out
Running on hosts (process indices):  amax (0-6)
Divided in process groups (process indices):  0 (0)  1 (1)  2 (2)  3 (3)  4 (4)  5 (5)  6 (6)
gpuInit: Found compatible cuda device 0 'Tesla K80'
gpuInit: Found compatible cuda device 1 'Tesla K80'
gpuInit: Found compatible cuda device 2 'Tesla K80'
gpuInit: Found compatible cuda device 3 'Tesla K80'
gpuInit: Found compatible cuda device 4 'Tesla K80'
gpuInit: Found compatible cuda device 5 'Tesla K80'
gpuInit: Found compatible cuda device 6 'Tesla K80'
gpuInit: Selected device 0
Resource initialization completed at t[s]:      3.40
Run totals: 7 processes, 24 threads, 7 GPUs


Input parsed successfully to the following command list (including defaults):

basis kpoint-dependent
cache-projectors no
coords-type Lattice
core-overlap-check none
coulomb-interaction Slab 001
coulomb-truncation-embed 0.5 0.5 0.5
davidson-band-ratio 1.1
dump End State
dump-name NbTe2.$VAR
elec-cutoff 20
elec-eigen-algo Davidson
elec-ex-corr gga-PBE
elec-initial-charge 0.000000
elec-initial-magnetization 20.000000 no
elec-smearing Gauss 0.0073499
electronic-minimize  \
	dirUpdateScheme      FletcherReeves \
	linminMethod         DirUpdateRecommended \
	nIterations          200 \
	history              15 \
	knormThreshold       0 \
	energyDiffThreshold  1e-08 \
	nEnergyDiff          2 \
	alphaTstart          1 \
	alphaTmin            1e-10 \
	updateTestStepSize   yes \
	alphaTreduceFactor   0.1 \
	alphaTincreaseFactor 3 \
	nAlphaAdjustMax      3 \
	wolfeEnergy          0.0001 \
	wolfeGradient        0.9 \
	fdTest               no
exchange-regularization WignerSeitzTruncated
fluid LinearPCM 298.000000 1.013250
fluid-anion F- 1 MeanFieldLJ \
	epsBulk 1 \
	pMol 0 \
	epsInf 1 \
	Pvap 0 \
	sigmaBulk 0 \
	Rvdw 2.24877 \
	Res 0 \
	tauNuc 343133
fluid-cation Na+ 1 MeanFieldLJ \
	epsBulk 1 \
	pMol 0 \
	epsInf 1 \
	Pvap 0 \
	sigmaBulk 0 \
	Rvdw 2.19208 \
	Res 0 \
	tauNuc 343133
fluid-ex-corr lda-TF lda-PZ
fluid-gummel-loop 10 1.000000e-05
fluid-minimize  \
	dirUpdateScheme      PolakRibiere \
	linminMethod         DirUpdateRecommended \
	nIterations          400 \
	history              15 \
	knormThreshold       1e-11 \
	energyDiffThreshold  0 \
	nEnergyDiff          2 \
	alphaTstart          1 \
	alphaTmin            1e-10 \
	updateTestStepSize   yes \
	alphaTreduceFactor   0.1 \
	alphaTincreaseFactor 3 \
	nAlphaAdjustMax      6 \
	wolfeEnergy          0.0001 \
	wolfeGradient        0.9 \
	fdTest               no
fluid-solvent H2O 55.338 ScalarEOS \
	epsBulk 78.4 \
	pMol 0.92466 \
	epsInf 1.77 \
	Pvap 1.06736e-10 \
	sigmaBulk 4.62e-05 \
	Rvdw 2.61727 \
	Res 1.42 \
	tauNuc 343133 \
	poleEl 15 7 1
forces-output-coords Positions
initial-state NbTe2.$VAR
ion V   0.083329996000003   0.166669988999999   0.500000026505481 1
ion V   0.333330015000001   0.166669988999999   0.500000026505481 1
ion V   0.583329978000002   0.166669988999999   0.500000026505481 1
ion V   0.833329939999999   0.166669988999999   0.500000026505481 1
ion V   0.083329995000000   0.416669986000002   0.500000026505481 1
ion V   0.333330013999998   0.416669986000002   0.500000026505481 1
ion V   0.583329976000002   0.416669986000002   0.500000026505481 1
ion V   0.833329937999999   0.416669986000002   0.500000026505481 1
ion V   0.083329976999998   0.666670025999999   0.500000026505481 1
ion V   0.333329996000003   0.666670025999999   0.500000026505481 1
ion V   0.583329958000000   0.666670025999999   0.500000026505481 1
ion V   0.833329919999997   0.666670025999999   0.500000026505481 1
ion V   0.083329956000000   0.916670021999998   0.500000026505481 1
ion V   0.333329994000003   0.916670021999998   0.500000026505481 1
ion V   0.583329956000000   0.916670021999998   0.500000026505481 1
ion V   0.833329919000001   0.916670021999998   0.500000026505481 1
ion S   0.000000000000000   0.000000000000000   0.417132876512295 1
ion S   0.000000000000000   0.000000000000000   0.582867123487705 1
ion S   0.250000000000000   0.000000000000000   0.417132876512295 1
ion S   0.250000000000000   0.000000000000000   0.582867123487705 1
ion S   0.500000000000000   0.000000000000000   0.417132876512295 1
ion S   0.500000000000000   0.000000000000000   0.582867123487705 1
ion S   0.750000000000000   0.000000000000000   0.417132876512295 1
ion S   0.750000000000000   0.000000000000000   0.582867123487705 1
ion S   0.999999998000000   0.249999996000000   0.417132876512295 1
ion S   0.999999998000000   0.249999996000000   0.582867123487705 1
ion S   0.249999998000000   0.249999996000000   0.417132876512295 1
ion S   0.249999998000000   0.249999996000000   0.582867123487705 1
ion S   0.499999998000000   0.249999996000000   0.417132876512295 1
ion S   0.499999998000000   0.249999996000000   0.582867123487705 1
ion S   0.749999998000000   0.249999996000000   0.417132876512295 1
ion S   0.749999998000000   0.249999996000000   0.582867123487705 1
ion S   0.999999996000000   0.499999993000003   0.417132876512295 1
ion S   0.999999996000000   0.499999993000003   0.582867123487705 1
ion S   0.249999996000000   0.499999993000003   0.417132876512295 1
ion S   0.249999996000000   0.499999993000003   0.582867123487705 1
ion S   0.499999996000000   0.499999993000003   0.417132876512295 1
ion S   0.499999996000000   0.499999993000003   0.582867123487705 1
ion S   0.749999996000000   0.499999993000003   0.417132876512295 1
ion S   0.749999996000000   0.499999993000003   0.582867123487705 1
ion S   0.999999995000003   0.749999989000003   0.417132876512295 1
ion S   0.999999995000003   0.749999989000003   0.582867123487705 1
ion S   0.249999995000003   0.749999989000003   0.417132876512295 1
ion S   0.249999995000003   0.749999989000003   0.582867123487705 1
ion S   0.499999995000003   0.749999989000003   0.417132876512295 1
ion S   0.499999995000003   0.749999989000003   0.582867123487705 1
ion S   0.749999995000003   0.749999989000003   0.417132876512295 1
ion S   0.749999995000003   0.749999989000003   0.582867123487705 1
ion-species GBRV/$ID_pbe.uspp
ion-width Ecut
ionic-minimize  \
	dirUpdateScheme      L-BFGS \
	linminMethod         DirUpdateRecommended \
	nIterations          500 \
	history              15 \
	knormThreshold       0.0001 \
	energyDiffThreshold  1e-06 \
	nEnergyDiff          2 \
	alphaTstart          1 \
	alphaTmin            1e-10 \
	updateTestStepSize   yes \
	alphaTreduceFactor   0.1 \
	alphaTincreaseFactor 3 \
	nAlphaAdjustMax      3 \
	wolfeEnergy          0.0001 \
	wolfeGradient        0.9 \
	fdTest               no
kpoint   0.000000000000   0.000000000000   0.000000000000  1.00000000000000
kpoint-folding 5 5 1 
latt-move-scale 1 1 1
latt-scale 1.88973 1.88973 1.88973 
lattice Triclinic 12.6408 12.6408 17.9799 90 90 120
lattice-minimize  \
	dirUpdateScheme      L-BFGS \
	linminMethod         DirUpdateRecommended \
	nIterations          0 \
	history              15 \
	knormThreshold       0 \
	energyDiffThreshold  1e-06 \
	nEnergyDiff          2 \
	alphaTstart          1 \
	alphaTmin            1e-10 \
	updateTestStepSize   yes \
	alphaTreduceFactor   0.1 \
	alphaTincreaseFactor 3 \
	nAlphaAdjustMax      3 \
	wolfeEnergy          0.0001 \
	wolfeGradient        0.9 \
	fdTest               no
lcao-params -1 1e-06 0.0073499
pcm-variant CANDLE
spintype z-spin
subspace-rotation-factor 1 yes
symmetries automatic
symmetry-threshold 0.0001



---------- Setting up symmetries ----------

Found 24 point-group symmetries of the bravais lattice
Found 192 space-group symmetries with basis
Applied RMS atom displacement 6.53881e-05 bohrs to make symmetries exact.

---------- Initializing the Grid ----------
R = 
[    23.8876   -11.9438          0  ]
[          0    20.6873          0  ]
[          0          0     33.977  ]
unit cell volume = 16790.5
G =
[   0.263031   0.151861         -0  ]
[          0   0.303722          0  ]
[          0         -0   0.184924  ]
Minimum fftbox size, Smin = [  100  100  140  ]
Chosen fftbox size, S = [  100  100  140  ]

---------- Exchange Correlation functional ----------
Initalized PBE GGA exchange.
Initalized PBE GGA correlation.

---------- Setting up pseudopotentials ----------
Width of ionic core gaussian charges (only for fluid interactions / plotting) set to 0.397384

Reading pseudopotential file '/home/guoxy/vasp/jdftx-1.5.0/build/pseudopotentials/GBRV/v_pbe.uspp':
  Title: V.  Created by USPP 7.3.6 on 31-3-15
  Reference state energy: -72.228583.  13 valence electrons in orbitals:
    |300>  occupation: 2  eigenvalue: -2.581040
    |310>  occupation: 6  eigenvalue: -1.618497
    |400>  occupation: 2  eigenvalue: -0.172800
    |320>  occupation: 3  eigenvalue: -0.189802
  lMax: 2  lLocal: 3  QijEcut: 6
  6 projectors sampled on a log grid with 593 points:
    l: 0  eig: -2.581041  rCut: 1.5
    l: 0  eig: -0.172801  rCut: 1.5
    l: 1  eig: -1.618497  rCut: 1.6
    l: 1  eig: 0.150000  rCut: 1.6
    l: 2  eig: -0.189802  rCut: 1.7
    l: 2  eig: 0.150000  rCut: 1.7
  Partial core density with radius 0.8
  Transforming core density to a uniform radial grid of dG=0.02 with 1471 points.
  Transforming local potential to a uniform radial grid of dG=0.02 with 1471 points.
  Transforming nonlocal projectors to a uniform radial grid of dG=0.02 with 432 points.
  Transforming density augmentations to a uniform radial grid of dG=0.02 with 1471 points.
  Transforming atomic orbitals to a uniform radial grid of dG=0.02 with 432 points.
  Core radius for overlap checks: 1.80 bohrs.

Reading pseudopotential file '/home/guoxy/vasp/jdftx-1.5.0/build/pseudopotentials/GBRV/s_pbe.uspp':
  Title: S.  Created by USPP 7.3.6 on 1-4-15
  Reference state energy: -11.898476.  6 valence electrons in orbitals:
    |300>  occupation: 2  eigenvalue: -0.634167
    |310>  occupation: 4  eigenvalue: -0.257568
  lMax: 2  lLocal: 3  QijEcut: 6
  6 projectors sampled on a log grid with 635 points:
    l: 0  eig: -0.634161  rCut: 1.5
    l: 0  eig: 1.500000  rCut: 1.5
    l: 1  eig: -0.257567  rCut: 1.5
    l: 1  eig: 1.500000  rCut: 1.5
    l: 2  eig: -1.000000  rCut: 1.5
    l: 2  eig: 1.500000  rCut: 1.5
  Partial core density with radius 1.15
  Transforming core density to a uniform radial grid of dG=0.02 with 1471 points.
  Transforming local potential to a uniform radial grid of dG=0.02 with 1471 points.
  Transforming nonlocal projectors to a uniform radial grid of dG=0.02 with 432 points.
  Transforming density augmentations to a uniform radial grid of dG=0.02 with 1471 points.
  Transforming atomic orbitals to a uniform radial grid of dG=0.02 with 432 points.
  Core radius for overlap checks: 1.50 bohrs.

Initialized 2 species with 48 total atoms.

Folded 1 k-points by 5x5x1 to 25 k-points.

---------- Setting up k-points, bands, fillings ----------
Adding inversion symmetry to k-mesh for non-inversion-symmetric unit cell.
Reduced to 5 k-points under symmetry. 
Computing the number of bands and number of electrons
Calculating initial fillings.
nElectrons: 400.000000   nBands: 288   nStates: 10

----- Setting up reduced wavefunction bases (one per k-point) -----
average nbasis = 71706.600 , ideal nbasis = 71730.201

---------- Setting up coulomb interaction ----------
Fluid mode embedding: using embedded box, but periodic Coulomb kernel.
(Fluid response is responsible for (approximate) separation between periodic images.)
Setting up double-sized grid for truncated Coulomb potentials:
R = 
[    23.8876   -11.9438          0  ]
[          0    20.6873          0  ]
[          0          0    67.9541  ]
unit cell volume = 33581
G =
[   0.263031   0.151861         -0  ]
[          0   0.303722          0  ]
[          0         -0  0.0924622  ]
Chosen fftbox size, S = [  100  100  280  ]
Integer grid location selected as the embedding center:
   Grid: [  50  50  70  ]
   Lattice: [  0.5  0.5  0.5  ]
   Cartesian: [  5.97191  10.3437  16.9885  ]
Constructing Wigner-Seitz cell: 8 faces (6 quadrilaterals, 2 hexagons)
Range-separation parameter for embedded mesh potentials due to point charges: 0.621497 bohrs.

Initializing van der Waals corrections
	NOTE: vdW corrections apply only for interactions with fluid.
	 V:  C6:  187.33 Eh-a0^6  R0: 2.952 a0
	 S:  C6:   96.61 Eh-a0^6  R0: 3.180 a0

---------- Setting up ewald sum ----------
Optimum gaussian width for ewald sums = 6.751509 bohr.
Real space sum over 605 unit cells with max indices [  5  5  2  ]
Reciprocal space sum over 7875 terms with max indices [  7  7  17  ]

---------- Allocating electronic variables ----------
Initializing wave functions:  linear combination of atomic orbitals
V pseudo-atom occupations:   s ( 2 0 )  p ( 6 )  d ( 5 )
S pseudo-atom occupations:   s ( 2 )  p ( 4 )
	FillingsUpdate:  mu: +3.514523023  nElectrons: 400.000000  magneticMoment: [ Abs: 2.04789  Tot: +2.04785 ]
LCAOMinimize: Iter:   0  F: -1226.5777730045456337  |grad|_K:  1.364e-02  alpha:  1.000e+00
LCAOMinimize: 	Predicted alpha/alphaT>3.000000, increasing alphaT to 3.000000e+00.
	FillingsUpdate:  mu: -0.789995767  nElectrons: 400.000000  magneticMoment: [ Abs: 2.44541  Tot: -2.38895 ]
LCAOMinimize: Iter:   1  F: -1358.8771486751804787  |grad|_K:  4.649e-03  alpha:  1.245e+00  linmin:  1.939e-02  cgtest: -4.023e+00  t[s]:    140.20
LCAOMinimize: 	Bad step direction: g.d > 0.
LCAOMinimize: 	Undoing step.
LCAOMinimize: 	Step failed: resetting search direction.
	FillingsUpdate:  mu: -0.789995767  nElectrons: 400.000000  magneticMoment: [ Abs: 2.44541  Tot: -2.38895 ]
LCAOMinimize: Iter:   2  F: -1358.8771486751804787  |grad|_K:  4.649e-03  alpha:  0.000e+00
	FillingsUpdate:  mu: -0.789444247  nElectrons: 400.000000  magneticMoment: [ Abs: 2.67378  Tot: -2.61760 ]
LCAOMinimize: Iter:   3  F: -1360.0465760074919217  |grad|_K:  3.835e-03  alpha:  7.775e-02  linmin: -2.081e-02  cgtest:  1.115e+00  t[s]:    206.89
LCAOMinimize: Encountered beta<0, resetting CG.
LCAOMinimize: 	Wrong curvature in test step, increasing alphaT to 2.332519e-01.
	FillingsUpdate:  mu: -0.788791300  nElectrons: 400.000000  magneticMoment: [ Abs: 2.80766  Tot: -2.75177 ]
LCAOMinimize: Iter:   4  F: -1361.0442781577285132  |grad|_K:  4.010e-03  alpha: -8.662e-01  linmin: -2.432e-02  cgtest:  8.801e-01  t[s]:    245.13
	FillingsUpdate:  mu: -0.788159998  nElectrons: 400.000000  magneticMoment: [ Abs: 2.78183  Tot: -2.72607 ]
LCAOMinimize: Iter:   5  F: -1361.9492018881403510  |grad|_K:  4.891e-03  alpha:  4.608e-02  linmin: -2.705e-02  cgtest:  7.739e-01  t[s]:    284.78
LCAOMinimize: 	Wrong curvature in test step, increasing alphaT to 1.382531e-01.
	FillingsUpdate:  mu: -0.786346589  nElectrons: 400.000000  magneticMoment: [ Abs: 2.38759  Tot: -2.33191 ]
LCAOMinimize: Iter:   6  F: -1364.9970754940936786  |grad|_K:  9.521e-03  alpha: -2.385e-02  linmin: -3.690e-02  cgtest:  4.718e-01  t[s]:    323.05
LCAOMinimize: 	Step increased F by 1.697055e+02, reducing alpha to 3.665546e-02.
	FillingsUpdate:  mu: -0.762871143  nElectrons: 400.000000  magneticMoment: [ Abs: 0.33420  Tot: -0.27299 ]
LCAOMinimize: Iter:   7  F: -1408.9119613820671475  |grad|_K:  7.323e-03  alpha:  3.666e-02  linmin: -8.874e-02  cgtest:  9.108e-01  t[s]:    388.86
LCAOMinimize: Encountered beta<0, resetting CG.
LCAOMinimize: 	Predicted alpha/alphaT>3.000000, increasing alphaT to 1.099664e-01.
LCAOMinimize: 	Predicted alpha/alphaT>3.000000, increasing alphaT to 3.298991e-01.
LCAOMinimize: 	Wrong curvature in test step, increasing alphaT to 9.896974e-01.
	FillingsUpdate:  mu: -0.725172410  nElectrons: 400.000000  magneticMoment: [ Abs: 0.51006  Tot: -0.46523 ]
LCAOMinimize: Iter:   8  F: -1424.7665072175930163  |grad|_K:  9.931e-03  alpha: -2.258e+00  linmin: -1.479e-01  cgtest:  4.588e-01  t[s]:    452.54
LCAOMinimize: 	Step increased F by 1.850486e+02, reducing alpha to 2.583589e-02.
	FillingsUpdate:  mu: -0.588950425  nElectrons: 400.000000  magneticMoment: [ Abs: 0.97807  Tot: -0.97701 ]
LCAOMinimize: Iter:   9  F: -1436.2905693033969783  |grad|_K:  1.311e-02  alpha:  2.584e-02  linmin: -1.711e-01  cgtest:  6.428e-01  t[s]:    518.40
LCAOMinimize: 	Predicted alpha/alphaT>3.000000, increasing alphaT to 7.750766e-02.
	FillingsUpdate:  mu: +0.377580459  nElectrons: 400.000000  magneticMoment: [ Abs: 1.80392  Tot: -0.82740 ]
LCAOMinimize: Iter:  10  F: -1469.8310639720864401  |grad|_K:  1.495e-02  alpha:  7.376e-02  linmin:  4.449e-01  cgtest: -2.791e-01  t[s]:    569.14
LCAOMinimize: 	Bad step direction: g.d > 0.
LCAOMinimize: 	Undoing step.
LCAOMinimize: 	Step failed: resetting search direction.
	FillingsUpdate:  mu: +0.377580459  nElectrons: 400.000000  magneticMoment: [ Abs: 1.80392  Tot: -0.82740 ]
LCAOMinimize: Iter:  11  F: -1469.8310639720864401  |grad|_K:  1.495e-02  alpha:  0.000e+00
	FillingsUpdate:  mu: -0.156799426  nElectrons: 400.000000  magneticMoment: [ Abs: 2.04675  Tot: -1.45729 ]
LCAOMinimize: Iter:  12  F: -1475.5665159655893603  |grad|_K:  1.013e-03  alpha:  6.344e-02  linmin: -5.004e-01  cgtest:  1.106e+00  t[s]:    634.37
LCAOMinimize: Encountered beta<0, resetting CG.
	FillingsUpdate:  mu: -0.200088353  nElectrons: 400.000000  magneticMoment: [ Abs: 2.03938  Tot: -1.49340 ]
LCAOMinimize: Iter:  13  F: -1475.6109499276776660  |grad|_K:  3.439e-04  alpha:  1.009e-01  linmin: -1.109e-01  cgtest:  1.851e-01  t[s]:    673.17
LCAOMinimize: 	Predicted alpha/alphaT>3.000000, increasing alphaT to 3.026781e-01.
	FillingsUpdate:  mu: -0.172344112  nElectrons: 400.000000  magneticMoment: [ Abs: 2.00227  Tot: -1.54414 ]
LCAOMinimize: Iter:  14  F: -1475.6454737516964997  |grad|_K:  3.195e-04  alpha:  7.586e-01  linmin:  6.397e-02  cgtest: -2.145e-01  t[s]:    723.16
	FillingsUpdate:  mu: -0.183420960  nElectrons: 400.000000  magneticMoment: [ Abs: 2.00001  Tot: -1.56973 ]
LCAOMinimize: Iter:  15  F: -1475.6481681130992456  |grad|_K:  7.233e-05  alpha:  1.076e-01  linmin:  1.392e-01  cgtest:  5.577e-01  t[s]:    762.66
LCAOMinimize: Encountered beta<0, resetting CG.
	FillingsUpdate:  mu: -0.188379787  nElectrons: 400.000000  magneticMoment: [ Abs: 2.01005  Tot: -1.58973 ]
LCAOMinimize: Iter:  16  F: -1475.6487048330991456  |grad|_K:  7.560e-05  alpha:  2.419e-01  linmin: -1.028e-02  cgtest:  2.184e-02  t[s]:    801.14
	FillingsUpdate:  mu: -0.186399150  nElectrons: 400.000000  magneticMoment: [ Abs: 2.03405  Tot: -1.62901 ]
LCAOMinimize: Iter:  17  F: -1475.6494065295214568  |grad|_K:  1.137e-05  alpha:  2.865e-01  linmin:  1.479e-02  cgtest: -7.015e-01  t[s]:    839.62
	FillingsUpdate:  mu: -0.186940106  nElectrons: 400.000000  magneticMoment: [ Abs: 2.04205  Tot: -1.63955 ]
LCAOMinimize: Iter:  18  F: -1475.6494129721131685  |grad|_K:  3.240e-06  alpha:  1.291e-01  linmin:  9.293e-04  cgtest:  2.761e-01  t[s]:    878.91
LCAOMinimize: 	Predicted alpha/alphaT>3.000000, increasing alphaT to 3.873632e-01.
LCAOMinimize: 	Predicted alpha/alphaT>3.000000, increasing alphaT to 1.162089e+00.
	FillingsUpdate:  mu: -0.186991733  nElectrons: 400.000000  magneticMoment: [ Abs: 2.12029  Tot: -1.72999 ]
LCAOMinimize: Iter:  19  F: -1475.6494195112777561  |grad|_K:  3.980e-06  alpha:  1.493e+00  linmin:  7.285e-04  cgtest: -8.376e-04  t[s]:    941.28
	FillingsUpdate:  mu: -0.186649839  nElectrons: 400.000000  magneticMoment: [ Abs: 2.17378  Tot: -1.78363 ]
LCAOMinimize: Iter:  20  F: -1475.6494219540752511  |grad|_K:  6.585e-06  alpha:  3.697e-01  linmin: -2.217e-04  cgtest:  4.726e-03  t[s]:    980.19
LCAOMinimize: 	Predicted alpha/alphaT>3.000000, increasing alphaT to 1.109183e+00.
	FillingsUpdate:  mu: -0.186900534  nElectrons: 400.000000  magneticMoment: [ Abs: 3.00170  Tot: -2.57455 ]
LCAOMinimize: Iter:  21  F: -1475.6494540967082685  |grad|_K:  9.026e-06  alpha:  1.773e+00  linmin:  8.244e-05  cgtest: -9.474e-02  t[s]:   1030.52
LCAOMinimize: 	Predicted alpha/alphaT>3.000000, increasing alphaT to 5.319605e+00.
	FillingsUpdate:  mu: -0.186382238  nElectrons: 400.000000  magneticMoment: [ Abs: 4.88402  Tot: -4.18628 ]
LCAOMinimize: Iter:  22  F: -1475.6495569354153758  |grad|_K:  1.792e-05  alpha:  1.786e+00  linmin: -4.172e-02  cgtest:  5.401e-01  t[s]:   1080.57
	FillingsUpdate:  mu: -0.187481658  nElectrons: 400.000000  magneticMoment: [ Abs: 5.54938  Tot: -4.72007 ]
LCAOMinimize: Iter:  23  F: -1475.6496067985310674  |grad|_K:  1.777e-05  alpha:  2.123e-01  linmin: -3.397e-02  cgtest:  3.558e-02  t[s]:   1120.19
LCAOMinimize: 	Predicted alpha/alphaT>3.000000, increasing alphaT to 6.370401e-01.
	FillingsUpdate:  mu: -0.186986163  nElectrons: 400.000000  magneticMoment: [ Abs: 7.32605  Tot: -6.03441 ]
LCAOMinimize: Iter:  24  F: -1475.6497094917342565  |grad|_K:  9.919e-06  alpha:  5.803e-01  linmin:  1.354e-02  cgtest:  5.632e-01  t[s]:   1170.39
LCAOMinimize: Encountered beta<0, resetting CG.
	FillingsUpdate:  mu: -0.186677162  nElectrons: 400.000000  magneticMoment: [ Abs: 7.37800  Tot: -5.94552 ]
LCAOMinimize: Iter:  25  F: -1475.6497552097218886  |grad|_K:  5.332e-06  alpha:  1.110e+00  linmin: -4.870e-03  cgtest:  9.179e-03  t[s]:   1209.25
	FillingsUpdate:  mu: -0.187028817  nElectrons: 400.000000  magneticMoment: [ Abs: 7.38299  Tot: -5.93235 ]
LCAOMinimize: Iter:  26  F: -1475.6497583430000304  |grad|_K:  6.049e-06  alpha:  2.635e-01  linmin:  1.195e-03  cgtest: -1.015e-02  t[s]:   1248.06
	FillingsUpdate:  mu: -0.186840140  nElectrons: 400.000000  magneticMoment: [ Abs: 7.38910  Tot: -5.90236 ]
LCAOMinimize: Iter:  27  F: -1475.6497631505110348  |grad|_K:  8.904e-07  alpha:  3.158e-01  linmin:  2.426e-03  cgtest:  1.064e-01  t[s]:   1286.19
LCAOMinimize: 	Predicted alpha/alphaT>3.000000, increasing alphaT to 9.475431e-01.
	FillingsUpdate:  mu: -0.186792892  nElectrons: 400.000000  magneticMoment: [ Abs: 7.36622  Tot: -5.88336 ]
LCAOMinimize: Iter:  28  F: -1475.6497635591838389  |grad|_K:  1.643e-06  alpha:  1.235e+00  linmin:  8.357e-05  cgtest:  1.105e-04  t[s]:   1337.70
	FillingsUpdate:  mu: -0.186883472  nElectrons: 400.000000  magneticMoment: [ Abs: 7.35308  Tot: -5.87293 ]
LCAOMinimize: Iter:  29  F: -1475.6497637434074477  |grad|_K:  1.015e-06  alpha:  1.640e-01  linmin:  7.350e-04  cgtest: -4.060e-03  t[s]:   1376.40
LCAOMinimize: Converged (|Delta F|<1.000000e-06 for 2 iters).
----- createFluidSolver() ----- (Fluid-side solver setup)
   Initializing fluid molecule 'H2O'
     Initializing site 'O'
       Electron density: proportional to exp(-r/0.36935)*erfc((r-0.51523)/0.36823) with norm 6.826
       Charge density: gaussian nuclear width 0.478731 with net site charge 0.826
       Polarizability: cuspless exponential with width 0.32 and norm 3.73
       Hard sphere radius: 2.57003 bohrs
       Positions in reference frame:
         [ +0.000000 +0.000000 +0.000000 ]
     Initializing site 'H'
       Electron density: proportional to exp(-r/0.34641)*erfc((r-0)/0.390882) with norm 0.587
       Charge density: gaussian nuclear width 0.377945 with net site charge -0.413
       Polarizability: cuspless exponential with width 0.39 and norm 3.3
       Positions in reference frame:
         [ +0.000000 -1.441945 +1.122523 ]
         [ +0.000000 +1.441945 +1.122523 ]
     Net charge: 0   dipole magnitude: 0.927204
     Initializing spherical shell mfKernel with radius 2.61727 Bohr
     deltaS corrections:
       site 'O': -7.54299
       site 'H': -6.83917
   Initializing fluid molecule 'Na+'
     Initializing site 'Na'
       Electron density: proportional to exp(-r/0.19682)*erfc((r-0.71491)/0.41314) with norm 8.1383
       Charge density: gaussian nuclear width 0.365347 with net site charge -1
       Hard sphere radius: 1.86327 bohrs
       Positions in reference frame:
         [ +0.000000 +0.000000 +0.000000 ]
     Net charge: -1   dipole magnitude: 0
     Initializing gaussian mfKernel with width: 1.55004 Bohr
     deltaS corrections:
       site 'Na': -22.3555
   Initializing fluid molecule 'F-'
     Initializing site 'F'
       Electron density: proportional to exp(-r/0.38886)*erfc((r-0)/0.438782) with norm 8
       Charge density: gaussian nuclear width 0.374796 with net site charge 1
       Hard sphere radius: 2.39995 bohrs
       Positions in reference frame:
         [ +0.000000 +0.000000 +0.000000 ]
     Net charge: 1   dipole magnitude: 0
     Initializing gaussian mfKernel with width: 1.59012 Bohr
     deltaS corrections:
       site 'F': -9.04335

Correction to mu due to finite nuclear width = -0.0118186
   Cavity determined by nc: 0.00142 and sigma: 0.707107
   Nonlocal vdW cavity from gaussian model electron density with norm = 8 and sigma = 0.993594 bohr
   Charge asymmetry in cavity with sensitivity pCavity = 36.5 e-bohr/Eh
   Electrostatic cavity expanded by eta = 1.46 bohrs
   Weighted density cavitation model constrained by Nbulk: 0.0049383 bohr^-3, Pvap: 3.14029 kPa, Rvdw: 2.61727 bohr and sigmaBulk: 4.62e-05 Eh/bohr^2 at T: 298 K.
   Weighted density dispersion model using vdW pair potentials with single solvent site with sqrtC6eff: 0.77 SI.


---- Citations for features of the code used in this run ----

   Software package:
      R. Sundararaman, K. Letchworth-Weaver, K.A. Schwarz, D. Gunceler, Y. Ozhabes and T.A. Arias, 'JDFTx: software for joint density-functional theory', SoftwareX 6, 278 (2017)

   gga-PBE exchange-correlation functional:
      J.P. Perdew, K. Burke and M. Ernzerhof, Phys. Rev. Lett. 77, 3865 (1996)

   Pseudopotentials:
      KF Garrity, JW Bennett, KM Rabe and D Vanderbilt, Comput. Mater. Sci. 81, 446 (2014)

   Truncated Coulomb potentials:
      R. Sundararaman and T.A. Arias, Phys. Rev. B 87, 165122 (2013)

   Van der Waals correction pair-potentials:
      S. Grimme, J. Comput. Chem. 27, 1787 (2006)

   Charge-asymmetric nonlocally-determined local-electric (CANDLE) solvation model:
      R. Sundararaman and W.A. Goddard III, J. Chem. Phys. 142, 064107 (2015)

   Total energy minimization with Auxiliary Hamiltonian:
      C. Freysoldt, S. Boeck, and J. Neugebauer, Phys. Rev. B 79, 241103(R) (2009)

This list may not be complete. Please suggest additional citations or
report any other bugs at https://github.com/shankar1729/jdftx/issues

Initialization completed successfully at t[s]:   1381.27

Fluid solver invoked on fresh (partially random / LCAO) wavefunctions
Running a vacuum solve first:

-------- Initial electronic minimization -----------
	FillingsUpdate:  mu: -0.186883472  nElectrons: 400.000000  magneticMoment: [ Abs: 7.35308  Tot: -5.87293 ]
ElecMinimize: Iter:   0  F: -1475.649763743415861  |grad|_K:  1.127e-04  alpha:  1.000e+00
	FillingsUpdate:  mu: -0.128263241  nElectrons: 400.000000  magneticMoment: [ Abs: 7.30938  Tot: -5.86557 ]
	SubspaceRotationAdjust: set factor to 1
ElecMinimize: Iter:   1  F: -1477.261183083877313  |grad|_K:  7.590e-05  alpha:  6.150e-01  linmin:  3.655e-07  t[s]:   1460.37
	FillingsUpdate:  mu: -0.056083449  nElectrons: 400.000000  magneticMoment: [ Abs: 7.75966  Tot: -6.28578 ]
	SubspaceRotationAdjust: set factor to 0.664
ElecMinimize: Iter:   2  F: -1477.875314634484084  |grad|_K:  6.867e-05  alpha:  5.143e-01  linmin:  1.310e-06  t[s]:   1508.33
	FillingsUpdate:  mu: -0.144555589  nElectrons: 400.000000  magneticMoment: [ Abs: 7.88208  Tot: -6.50970 ]
	SubspaceRotationAdjust: set factor to 0.313
ElecMinimize: Iter:   3  F: -1478.020749517281729  |grad|_K:  3.327e-05  alpha:  1.858e-01  linmin:  3.673e-05  t[s]:   1556.52
ElecMinimize: 	Predicted alpha/alphaT>3.000000, increasing alphaT to 5.575473e-01.
	FillingsUpdate:  mu: -0.120514521  nElectrons: 400.000000  magneticMoment: [ Abs: 8.06950  Tot: -6.61560 ]
	SubspaceRotationAdjust: set factor to 0.247
ElecMinimize: Iter:   4  F: -1478.153441572507973  |grad|_K:  1.608e-05  alpha:  6.587e-01  linmin:  3.738e-05  t[s]:   1618.85
	FillingsUpdate:  mu: -0.134120595  nElectrons: 400.000000  magneticMoment: [ Abs: 8.05847  Tot: -6.58842 ]
	SubspaceRotationAdjust: set factor to 0.245
ElecMinimize: Iter:   5  F: -1478.182513032302040  |grad|_K:  1.202e-05  alpha:  5.523e-01  linmin:  3.115e-07  t[s]:   1666.97
	FillingsUpdate:  mu: -0.129924011  nElectrons: 400.000000  magneticMoment: [ Abs: 8.03738  Tot: -6.54159 ]
	SubspaceRotationAdjust: set factor to 0.285
ElecMinimize: Iter:   6  F: -1478.198158959057082  |grad|_K:  6.597e-06  alpha:  5.240e-01  linmin:  2.245e-07  t[s]:   1714.84
	FillingsUpdate:  mu: -0.129314001  nElectrons: 400.000000  magneticMoment: [ Abs: 7.97020  Tot: -6.46703 ]
	SubspaceRotationAdjust: set factor to 0.348
ElecMinimize: Iter:   7  F: -1478.204385606164578  |grad|_K:  4.936e-06  alpha:  6.923e-01  linmin:  3.093e-07  t[s]:   1763.12
	FillingsUpdate:  mu: -0.131161493  nElectrons: 400.000000  magneticMoment: [ Abs: 7.87051  Tot: -6.37308 ]
	SubspaceRotationAdjust: set factor to 0.424
ElecMinimize: Iter:   8  F: -1478.207425439527015  |grad|_K:  3.640e-06  alpha:  6.035e-01  linmin:  1.576e-07  t[s]:   1811.12
	FillingsUpdate:  mu: -0.128744389  nElectrons: 400.000000  magneticMoment: [ Abs: 7.75411  Tot: -6.26526 ]
	SubspaceRotationAdjust: set factor to 0.487
ElecMinimize: Iter:   9  F: -1478.208975517070485  |grad|_K:  2.629e-06  alpha:  5.657e-01  linmin:  3.758e-07  t[s]:   1859.01
	FillingsUpdate:  mu: -0.130952687  nElectrons: 400.000000  magneticMoment: [ Abs: 7.61845  Tot: -6.14600 ]
	SubspaceRotationAdjust: set factor to 0.468
ElecMinimize: Iter:  10  F: -1478.209720770096965  |grad|_K:  1.767e-06  alpha:  5.223e-01  linmin:  2.848e-07  t[s]:   1907.18
	FillingsUpdate:  mu: -0.128908805  nElectrons: 400.000000  magneticMoment: [ Abs: 7.48221  Tot: -6.02585 ]
	SubspaceRotationAdjust: set factor to 0.407
ElecMinimize: Iter:  11  F: -1478.210051845433100  |grad|_K:  1.287e-06  alpha:  5.134e-01  linmin:  3.518e-07  t[s]:   1954.99
	FillingsUpdate:  mu: -0.130113604  nElectrons: 400.000000  magneticMoment: [ Abs: 7.34276  Tot: -5.90812 ]
	SubspaceRotationAdjust: set factor to 0.435
ElecMinimize: Iter:  12  F: -1478.210214097440030  |grad|_K:  8.913e-07  alpha:  4.748e-01  linmin:  2.449e-07  t[s]:   2003.34
	FillingsUpdate:  mu: -0.129934752  nElectrons: 400.000000  magneticMoment: [ Abs: 7.16706  Tot: -5.76324 ]
	SubspaceRotationAdjust: set factor to 0.543
ElecMinimize: Iter:  13  F: -1478.210322493233207  |grad|_K:  7.138e-07  alpha:  6.605e-01  linmin:  4.697e-07  t[s]:   2051.23
	FillingsUpdate:  mu: -0.130193771  nElectrons: 400.000000  magneticMoment: [ Abs: 6.91305  Tot: -5.55809 ]
	SubspaceRotationAdjust: set factor to 0.68
ElecMinimize: Iter:  14  F: -1478.210410469769386  |grad|_K:  7.191e-07  alpha:  8.356e-01  linmin:  4.878e-07  t[s]:   2100.33
	FillingsUpdate:  mu: -0.129705129  nElectrons: 400.000000  magneticMoment: [ Abs: 6.56020  Tot: -5.27491 ]
	SubspaceRotationAdjust: set factor to 0.806
ElecMinimize: Iter:  15  F: -1478.210492220655624  |grad|_K:  7.571e-07  alpha:  7.648e-01  linmin:  2.659e-07  t[s]:   2148.27
	FillingsUpdate:  mu: -0.130515092  nElectrons: 400.000000  magneticMoment: [ Abs: 6.11509  Tot: -4.92031 ]
	SubspaceRotationAdjust: set factor to 0.799
ElecMinimize: Iter:  16  F: -1478.210568915587828  |grad|_K:  8.712e-07  alpha:  6.478e-01  linmin:  8.057e-08  t[s]:   2196.96
	FillingsUpdate:  mu: -0.129391415  nElectrons: 400.000000  magneticMoment: [ Abs: 5.69190  Tot: -4.58339 ]
	SubspaceRotationAdjust: set factor to 0.692
ElecMinimize: Iter:  17  F: -1478.210630344727861  |grad|_K:  9.111e-07  alpha:  3.902e-01  linmin: -5.747e-08  t[s]:   2244.86
	FillingsUpdate:  mu: -0.130142480  nElectrons: 400.000000  magneticMoment: [ Abs: 4.94148  Tot: -3.98797 ]
	SubspaceRotationAdjust: set factor to 0.699
ElecMinimize: Iter:  18  F: -1478.210726146394563  |grad|_K:  8.185e-07  alpha:  5.560e-01  linmin: -2.061e-06  t[s]:   2293.69
	FillingsUpdate:  mu: -0.129662705  nElectrons: 400.000000  magneticMoment: [ Abs: 3.91634  Tot: -3.17402 ]
	SubspaceRotationAdjust: set factor to 0.788
ElecMinimize: Iter:  19  F: -1478.210846023766862  |grad|_K:  8.672e-07  alpha:  8.573e-01  linmin: -1.542e-06  t[s]:   2341.21
	FillingsUpdate:  mu: -0.130277352  nElectrons: 400.000000  magneticMoment: [ Abs: 2.98012  Tot: -2.42780 ]
	SubspaceRotationAdjust: set factor to 0.855
ElecMinimize: Iter:  20  F: -1478.210949084791537  |grad|_K:  8.070e-07  alpha:  6.608e-01  linmin: -2.253e-07  t[s]:   2389.87
	FillingsUpdate:  mu: -0.129420078  nElectrons: 400.000000  magneticMoment: [ Abs: 2.45131  Tot: -2.00314 ]
	SubspaceRotationAdjust: set factor to 0.738
ElecMinimize: Iter:  21  F: -1478.211005229235980  |grad|_K:  7.809e-07  alpha:  4.146e-01  linmin: -9.550e-08  t[s]:   2437.37
	FillingsUpdate:  mu: -0.130290990  nElectrons: 400.000000  magneticMoment: [ Abs: 2.07990  Tot: -1.70283 ]
	SubspaceRotationAdjust: set factor to 0.56
ElecMinimize: Iter:  22  F: -1478.211043109855609  |grad|_K:  5.557e-07  alpha:  3.005e-01  linmin: -1.376e-07  t[s]:   2486.22
	FillingsUpdate:  mu: -0.130006052  nElectrons: 400.000000  magneticMoment: [ Abs: 1.71970  Tot: -1.40853 ]
	SubspaceRotationAdjust: set factor to 0.602
ElecMinimize: Iter:  23  F: -1478.211078442288908  |grad|_K:  3.962e-07  alpha:  5.525e-01  linmin: -9.207e-07  t[s]:   2534.03
	FillingsUpdate:  mu: -0.129969651  nElectrons: 400.000000  magneticMoment: [ Abs: 1.47763  Tot: -1.20918 ]
	SubspaceRotationAdjust: set factor to 0.728
ElecMinimize: Iter:  24  F: -1478.211101041580150  |grad|_K:  3.174e-07  alpha:  6.951e-01  linmin: -3.104e-07  t[s]:   2583.07
	FillingsUpdate:  mu: -0.130201871  nElectrons: 400.000000  magneticMoment: [ Abs: 1.33354  Tot: -1.08982 ]
	SubspaceRotationAdjust: set factor to 0.817
ElecMinimize: Iter:  25  F: -1478.211113609433369  |grad|_K:  2.860e-07  alpha:  6.021e-01  linmin: -1.626e-08  t[s]:   2630.94
	FillingsUpdate:  mu: -0.129890852  nElectrons: 400.000000  magneticMoment: [ Abs: 1.25041  Tot: -1.02087 ]
	SubspaceRotationAdjust: set factor to 0.748
ElecMinimize: Iter:  26  F: -1478.211120256208687  |grad|_K:  2.548e-07  alpha:  3.922e-01  linmin: -1.051e-08  t[s]:   2679.69
	FillingsUpdate:  mu: -0.130129116  nElectrons: 400.000000  magneticMoment: [ Abs: 1.19217  Tot: -0.97281 ]
	SubspaceRotationAdjust: set factor to 0.647
ElecMinimize: Iter:  27  F: -1478.211124419485259  |grad|_K:  1.731e-07  alpha:  3.099e-01  linmin:  3.808e-08  t[s]:   2727.59
	FillingsUpdate:  mu: -0.130007491  nElectrons: 400.000000  magneticMoment: [ Abs: 1.14144  Tot: -0.93136 ]
	SubspaceRotationAdjust: set factor to 0.689
ElecMinimize: Iter:  28  F: -1478.211127449162632  |grad|_K:  1.204e-07  alpha:  4.895e-01  linmin:  1.513e-06  t[s]:   2776.47
	FillingsUpdate:  mu: -0.130038128  nElectrons: 400.000000  magneticMoment: [ Abs: 1.09900  Tot: -0.89711 ]
	SubspaceRotationAdjust: set factor to 0.805
ElecMinimize: Iter:  29  F: -1478.211129427649666  |grad|_K:  1.005e-07  alpha:  6.615e-01  linmin:  3.312e-07  t[s]:   2824.49
	FillingsUpdate:  mu: -0.129996788  nElectrons: 400.000000  magneticMoment: [ Abs: 1.06020  Tot: -0.86598 ]
	SubspaceRotationAdjust: set factor to 0.982
ElecMinimize: Iter:  30  F: -1478.211130806618485  |grad|_K:  9.593e-08  alpha:  6.609e-01  linmin:  8.835e-08  t[s]:   2872.31
	FillingsUpdate:  mu: -0.130088128  nElectrons: 400.000000  magneticMoment: [ Abs: 1.02480  Tot: -0.83746 ]
	SubspaceRotationAdjust: set factor to 0.855
ElecMinimize: Iter:  31  F: -1478.211131784400095  |grad|_K:  1.030e-07  alpha:  5.136e-01  linmin:  4.568e-08  t[s]:   2919.78
	FillingsUpdate:  mu: -0.129974748  nElectrons: 400.000000  magneticMoment: [ Abs: 0.99866  Tot: -0.81613 ]
	SubspaceRotationAdjust: set factor to 0.713
ElecMinimize: Iter:  32  F: -1478.211132378934963  |grad|_K:  8.654e-08  alpha:  2.704e-01  linmin: -2.480e-07  t[s]:   2967.15
	FillingsUpdate:  mu: -0.130031829  nElectrons: 400.000000  magneticMoment: [ Abs: 0.96032  Tot: -0.78460 ]
	SubspaceRotationAdjust: set factor to 0.843
ElecMinimize: Iter:  33  F: -1478.211133095110881  |grad|_K:  6.660e-08  alpha:  4.621e-01  linmin:  3.207e-06  t[s]:   3014.80
	FillingsUpdate:  mu: -0.130064620  nElectrons: 400.000000  magneticMoment: [ Abs: 0.91384  Tot: -0.74627 ]
	SubspaceRotationAdjust: set factor to 1
ElecMinimize: Iter:  34  F: -1478.211133793196723  |grad|_K:  7.478e-08  alpha:  7.625e-01  linmin:  2.601e-07  t[s]:   3062.27
	FillingsUpdate:  mu: -0.129969809  nElectrons: 400.000000  magneticMoment: [ Abs: 0.86597  Tot: -0.70672 ]
	SubspaceRotationAdjust: set factor to 0.855
ElecMinimize: Iter:  35  F: -1478.211134408751604  |grad|_K:  1.029e-07  alpha:  5.325e-01  linmin:  1.937e-08  t[s]:   3109.76
	FillingsUpdate:  mu: -0.130069725  nElectrons: 400.000000  magneticMoment: [ Abs: 0.81075  Tot: -0.66113 ]
	SubspaceRotationAdjust: set factor to 0.791
ElecMinimize: Iter:  36  F: -1478.211135062570065  |grad|_K:  8.603e-08  alpha:  2.983e-01  linmin: -1.231e-08  t[s]:   3157.55
	FillingsUpdate:  mu: -0.130032758  nElectrons: 400.000000  magneticMoment: [ Abs: 0.72458  Tot: -0.59033 ]
	SubspaceRotationAdjust: set factor to 0.909
ElecMinimize: Iter:  37  F: -1478.211135994735969  |grad|_K:  8.200e-08  alpha:  6.088e-01  linmin:  1.294e-07  t[s]:   3205.16
	FillingsUpdate:  mu: -0.129979630  nElectrons: 400.000000  magneticMoment: [ Abs: 0.63147  Tot: -0.51440 ]
	SubspaceRotationAdjust: set factor to 0.99
ElecMinimize: Iter:  38  F: -1478.211136925443952  |grad|_K:  9.731e-08  alpha:  6.695e-01  linmin:  7.696e-07  t[s]:   3253.07
	FillingsUpdate:  mu: -0.130103354  nElectrons: 400.000000  magneticMoment: [ Abs: 0.56440  Tot: -0.45998 ]
	SubspaceRotationAdjust: set factor to 0.872
ElecMinimize: Iter:  39  F: -1478.211137561096393  |grad|_K:  1.071e-07  alpha:  3.247e-01  linmin: -8.369e-08  t[s]:   3301.52
	FillingsUpdate:  mu: -0.130022550  nElectrons: 400.000000  magneticMoment: [ Abs: 0.45291  Tot: -0.36976 ]
	SubspaceRotationAdjust: set factor to 0.977
ElecMinimize: Iter:  40  F: -1478.211138576902158  |grad|_K:  8.580e-08  alpha:  4.277e-01  linmin:  1.854e-07  t[s]:   3349.33
	FillingsUpdate:  mu: -0.130020418  nElectrons: 400.000000  magneticMoment: [ Abs: 0.33982  Tot: -0.27827 ]
	SubspaceRotationAdjust: set factor to 1.15
ElecMinimize: Iter:  41  F: -1478.211139563934694  |grad|_K:  7.944e-08  alpha:  6.486e-01  linmin: -2.196e-07  t[s]:   3396.59
	FillingsUpdate:  mu: -0.130077351  nElectrons: 400.000000  magneticMoment: [ Abs: 0.25608  Tot: -0.21021 ]
	SubspaceRotationAdjust: set factor to 1.19
ElecMinimize: Iter:  42  F: -1478.211140269491125  |grad|_K:  7.979e-08  alpha:  5.399e-01  linmin: -3.730e-07  t[s]:   3444.80
	FillingsUpdate:  mu: -0.129992716  nElectrons: 400.000000  magneticMoment: [ Abs: 0.21796  Tot: -0.17900 ]
	SubspaceRotationAdjust: set factor to 0.966
ElecMinimize: Iter:  43  F: -1478.211140581568543  |grad|_K:  7.749e-08  alpha:  2.367e-01  linmin: -2.898e-08  t[s]:   3492.27
	FillingsUpdate:  mu: -0.130050745  nElectrons: 400.000000  magneticMoment: [ Abs: 0.16799  Tot: -0.13779 ]
	SubspaceRotationAdjust: set factor to 0.944
ElecMinimize: Iter:  44  F: -1478.211140980079335  |grad|_K:  5.133e-08  alpha:  3.206e-01  linmin: -6.068e-08  t[s]:   3539.99
	FillingsUpdate:  mu: -0.130033441  nElectrons: 400.000000  magneticMoment: [ Abs: 0.12762  Tot: -0.10427 ]
	SubspaceRotationAdjust: set factor to 1.12
ElecMinimize: Iter:  45  F: -1478.211141290970090  |grad|_K:  4.120e-08  alpha:  5.700e-01  linmin:  3.651e-08  t[s]:   3587.63
	FillingsUpdate:  mu: -0.130015183  nElectrons: 400.000000  magneticMoment: [ Abs: 0.10212  Tot: -0.08307 ]
	SubspaceRotationAdjust: set factor to 1.3
ElecMinimize: Iter:  46  F: -1478.211141479659545  |grad|_K:  3.482e-08  alpha:  5.373e-01  linmin:  3.196e-07  t[s]:   3635.03
	FillingsUpdate:  mu: -0.130053045  nElectrons: 400.000000  magneticMoment: [ Abs: 0.08952  Tot: -0.07265 ]
	SubspaceRotationAdjust: set factor to 1.05
ElecMinimize: Iter:  47  F: -1478.211141568024914  |grad|_K:  3.871e-08  alpha:  3.526e-01  linmin: -1.022e-08  t[s]:   3683.61
	FillingsUpdate:  mu: -0.130021179  nElectrons: 400.000000  magneticMoment: [ Abs: 0.08126  Tot: -0.06587 ]
	SubspaceRotationAdjust: set factor to 0.823
ElecMinimize: Iter:  48  F: -1478.211141623714411  |grad|_K:  2.335e-08  alpha:  1.792e-01  linmin: -5.158e-08  t[s]:   3731.35
	FillingsUpdate:  mu: -0.130030941  nElectrons: 400.000000  magneticMoment: [ Abs: 0.07239  Tot: -0.05873 ]
	SubspaceRotationAdjust: set factor to 0.955
ElecMinimize: Iter:  49  F: -1478.211141678532613  |grad|_K:  1.705e-08  alpha:  4.849e-01  linmin: -1.963e-07  t[s]:   3779.36
	FillingsUpdate:  mu: -0.130041707  nElectrons: 400.000000  magneticMoment: [ Abs: 0.06688  Tot: -0.05438 ]
	SubspaceRotationAdjust: set factor to 1.08
ElecMinimize: Iter:  50  F: -1478.211141709110734  |grad|_K:  1.602e-08  alpha:  5.070e-01  linmin: -3.424e-07  t[s]:   3827.21
	FillingsUpdate:  mu: -0.130024502  nElectrons: 400.000000  magneticMoment: [ Abs: 0.06381  Tot: -0.05199 ]
	SubspaceRotationAdjust: set factor to 0.929
ElecMinimize: Iter:  51  F: -1478.211141724279059  |grad|_K:  1.539e-08  alpha:  2.852e-01  linmin:  1.246e-07  t[s]:   3874.79
	FillingsUpdate:  mu: -0.130036849  nElectrons: 400.000000  magneticMoment: [ Abs: 0.06057  Tot: -0.04947 ]
	SubspaceRotationAdjust: set factor to 0.937
ElecMinimize: Iter:  52  F: -1478.211141738484230  |grad|_K:  9.732e-09  alpha:  2.898e-01  linmin:  9.802e-08  t[s]:   3923.86
	FillingsUpdate:  mu: -0.130033771  nElectrons: 400.000000  magneticMoment: [ Abs: 0.05782  Tot: -0.04731 ]
	SubspaceRotationAdjust: set factor to 1.08
ElecMinimize: Iter:  53  F: -1478.211141748492764  |grad|_K:  7.193e-09  alpha:  5.046e-01  linmin: -1.717e-06  t[s]:   3971.40
	FillingsUpdate:  mu: -0.130034102  nElectrons: 400.000000  magneticMoment: [ Abs: 0.05576  Tot: -0.04564 ]
	SubspaceRotationAdjust: set factor to 1.28
ElecMinimize: Iter:  54  F: -1478.211141754280789  |grad|_K:  5.929e-09  alpha:  5.308e-01  linmin: -3.284e-07  t[s]:   4019.79
	FillingsUpdate:  mu: -0.130030836  nElectrons: 400.000000  magneticMoment: [ Abs: 0.05382  Tot: -0.04403 ]
	SubspaceRotationAdjust: set factor to 1.44
ElecMinimize: Iter:  55  F: -1478.211141758206850  |grad|_K:  5.607e-09  alpha:  5.324e-01  linmin: -6.981e-07  t[s]:   4067.51
ElecMinimize: Converged (|Delta F|<1.000000e-08 for 2 iters).
Setting wave functions to eigenvectors of Hamiltonian
Vacuum energy after initial minimize, F = -1478.211141758206850

	Linear fluid (dielectric constant: 78.4, screening length: 5.74355 Bohr) occupying 0.756842 of unit cell:	Completed after 13 iterations at t[s]:   4081.06

-------- Electronic minimization -----------
	Linear fluid (dielectric constant: 78.4, screening length: 5.74355 Bohr) occupying 0.756842 of unit cell:	Completed after 0 iterations at t[s]:   4096.87
	FillingsUpdate:  mu: -0.214317500  nElectrons: 400.000000  magneticMoment: [ Abs: 0.05300  Tot: -0.04325 ]
ElecMinimize: Iter:   0  F: -1478.196991911514260  |grad|_K:  5.669e-07  alpha:  1.000e+00
	Linear fluid (dielectric constant: 78.4, screening length: 5.74355 Bohr) occupying 0.757142 of unit cell:	Completed after 9 iterations at t[s]:   4136.28
	Linear fluid (dielectric constant: 78.4, screening length: 5.74355 Bohr) occupying 0.757062 of unit cell:	Completed after 6 iterations at t[s]:   4156.61
	FillingsUpdate:  mu: -0.212819865  nElectrons: 400.000000  magneticMoment: [ Abs: 0.05202  Tot: -0.04247 ]
	SubspaceRotationAdjust: set factor to 0.843
ElecMinimize: Iter:   1  F: -1478.197040296718342  |grad|_K:  9.309e-07  alpha:  7.299e-01  linmin:  4.111e-08  t[s]:   4180.94
	Linear fluid (dielectric constant: 78.4, screening length: 5.74355 Bohr) occupying 0.757651 of unit cell:	Completed after 5 iterations at t[s]:   4195.02
	Linear fluid (dielectric constant: 78.4, screening length: 5.74355 Bohr) occupying 0.757160 of unit cell:	Completed after 4 iterations at t[s]:   4213.99
	FillingsUpdate:  mu: -0.213425965  nElectrons: 400.000000  magneticMoment: [ Abs: 0.05144  Tot: -0.04200 ]
	SubspaceRotationAdjust: set factor to 0.524
ElecMinimize: Iter:   2  F: -1478.197061597424408  |grad|_K:  2.861e-07  alpha:  1.181e-01  linmin:  5.319e-08  t[s]:   4238.58
	Linear fluid (dielectric constant: 78.4, screening length: 5.74355 Bohr) occupying 0.757172 of unit cell:	Completed after 0 iterations at t[s]:   4252.22
ElecMinimize: 	Predicted alpha/alphaT>3.000000, increasing alphaT to 3.543338e-01.
	Linear fluid (dielectric constant: 78.4, screening length: 5.74355 Bohr) occupying 0.757197 of unit cell:	Completed after 2 iterations at t[s]:   4270.12
	Linear fluid (dielectric constant: 78.4, screening length: 5.74355 Bohr) occupying 0.757265 of unit cell:	Completed after 2 iterations at t[s]:   4288.33
	FillingsUpdate:  mu: -0.213514074  nElectrons: 400.000000  magneticMoment: [ Abs: 0.05023  Tot: -0.04101 ]
	SubspaceRotationAdjust: set factor to 0.689
ElecMinimize: Iter:   3  F: -1478.197078363927858  |grad|_K:  2.333e-07  alpha:  9.950e-01  linmin:  1.760e-06  t[s]:   4311.96
	Linear fluid (dielectric constant: 78.4, screening length: 5.74355 Bohr) occupying 0.757335 of unit cell:	Completed after 6 iterations at t[s]:   4326.43
	Linear fluid (dielectric constant: 78.4, screening length: 5.74355 Bohr) occupying 0.757309 of unit cell:	Completed after 2 iterations at t[s]:   4345.60
	FillingsUpdate:  mu: -0.213296142  nElectrons: 400.000000  magneticMoment: [ Abs: 0.04941  Tot: -0.04035 ]
	SubspaceRotationAdjust: set factor to 0.827
ElecMinimize: Iter:   4  F: -1478.197085449273118  |grad|_K:  1.256e-07  alpha:  6.318e-01  linmin:  6.733e-07  t[s]:   4369.84
	Linear fluid (dielectric constant: 78.4, screening length: 5.74355 Bohr) occupying 0.757309 of unit cell:	Completed after 2 iterations at t[s]:   4383.41
	Linear fluid (dielectric constant: 78.4, screening length: 5.74355 Bohr) occupying 0.757309 of unit cell:	Completed after 0 iterations at t[s]:   4401.18
	FillingsUpdate:  mu: -0.213239780  nElectrons: 400.000000  magneticMoment: [ Abs: 0.04869  Tot: -0.03976 ]
	SubspaceRotationAdjust: set factor to 0.906
ElecMinimize: Iter:   5  F: -1478.197087850405296  |grad|_K:  8.278e-08  alpha:  7.399e-01  linmin: -7.750e-07  t[s]:   4424.36
	Linear fluid (dielectric constant: 78.4, screening length: 5.74355 Bohr) occupying 0.757298 of unit cell:	Completed after 3 iterations at t[s]:   4438.26
	Linear fluid (dielectric constant: 78.4, screening length: 5.74355 Bohr) occupying 0.757304 of unit cell:	Completed after 2 iterations at t[s]:   4456.44
	FillingsUpdate:  mu: -0.213341780  nElectrons: 400.000000  magneticMoment: [ Abs: 0.04836  Tot: -0.03949 ]
	SubspaceRotationAdjust: set factor to 0.598
ElecMinimize: Iter:   6  F: -1478.197088284762458  |grad|_K:  6.633e-08  alpha:  2.899e-01  linmin: -6.944e-08  t[s]:   4480.65
	Linear fluid (dielectric constant: 78.4, screening length: 5.74355 Bohr) occupying 0.757300 of unit cell:	Completed after 0 iterations at t[s]:   4494.28
	Linear fluid (dielectric constant: 78.4, screening length: 5.74355 Bohr) occupying 0.757296 of unit cell:	Completed after 2 iterations at t[s]:   4511.92
	FillingsUpdate:  mu: -0.213256181  nElectrons: 400.000000  magneticMoment: [ Abs: 0.04749  Tot: -0.03878 ]
	SubspaceRotationAdjust: set factor to 0.397
ElecMinimize: Iter:   7  F: -1478.197088566896809  |grad|_K:  6.849e-08  alpha:  5.771e-01  linmin:  1.120e-05  t[s]:   4535.35
	Linear fluid (dielectric constant: 78.4, screening length: 5.74355 Bohr) occupying 0.757285 of unit cell:	Completed after 2 iterations at t[s]:   4548.84
	Linear fluid (dielectric constant: 78.4, screening length: 5.74355 Bohr) occupying 0.757291 of unit cell:	Completed after 0 iterations at t[s]:   4566.77
	FillingsUpdate:  mu: -0.213318024  nElectrons: 400.000000  magneticMoment: [ Abs: 0.04698  Tot: -0.03836 ]
	SubspaceRotationAdjust: set factor to 0.378
ElecMinimize: Iter:   8  F: -1478.197088725407184  |grad|_K:  4.033e-08  alpha:  2.451e-01  linmin:  6.142e-06  t[s]:   4590.28
	Linear fluid (dielectric constant: 78.4, screening length: 5.74355 Bohr) occupying 0.757290 of unit cell:	Completed after 0 iterations at t[s]:   4603.66
	Linear fluid (dielectric constant: 78.4, screening length: 5.74355 Bohr) occupying 0.757290 of unit cell:	Completed after 0 iterations at t[s]:   4621.00
	FillingsUpdate:  mu: -0.213317976  nElectrons: 400.000000  magneticMoment: [ Abs: 0.04663  Tot: -0.03808 ]
	SubspaceRotationAdjust: set factor to 0.446
ElecMinimize: Iter:   9  F: -1478.197088820896852  |grad|_K:  3.013e-08  alpha:  3.211e-01  linmin: -3.740e-07  t[s]:   4643.96
	Linear fluid (dielectric constant: 78.4, screening length: 5.74355 Bohr) occupying 0.757290 of unit cell:	Completed after 2 iterations at t[s]:   4657.35
	Linear fluid (dielectric constant: 78.4, screening length: 5.74355 Bohr) occupying 0.757290 of unit cell:	Completed after 0 iterations at t[s]:   4675.15
ElecMinimize: 	Step increased F by 9.936230e-10, reducing alpha to 1.643448e-02.
	Linear fluid (dielectric constant: 78.4, screening length: 5.74355 Bohr) occupying 0.757290 of unit cell:	Completed after 0 iterations at t[s]:   4709.74
ElecMinimize: 	Step increased F by 2.310640e-08, reducing alpha to 1.643448e-03.
	Linear fluid (dielectric constant: 78.4, screening length: 5.74355 Bohr) occupying 0.757290 of unit cell:	Completed after 0 iterations at t[s]:   4744.45
ElecMinimize: 	Step increased F by 2.634579e-08, reducing alpha to 1.643448e-04.
ElecMinimize: 	Step failed to reduce F after 3 attempts. Quitting step.
ElecMinimize: 	Undoing step.
	Linear fluid (dielectric constant: 78.4, screening length: 5.74355 Bohr) occupying 0.757290 of unit cell:	Completed after 0 iterations at t[s]:   4778.82
ElecMinimize: 	Step failed: resetting search direction.
	FillingsUpdate:  mu: -0.213292628  nElectrons: 400.000000  magneticMoment: [ Abs: 0.04663  Tot: -0.03808 ]
	SubspaceRotationAdjust: set factor to 0.455
ElecMinimize: Iter:  10  F: -1478.197088794512638  |grad|_K:  3.715e-08  alpha:  1.643e-04
	Linear fluid (dielectric constant: 78.4, screening length: 5.74355 Bohr) occupying 0.757291 of unit cell:	Completed after 1 iterations at t[s]:   4815.00
	Linear fluid (dielectric constant: 78.4, screening length: 5.74355 Bohr) occupying 0.757291 of unit cell:	Completed after 0 iterations at t[s]:   4833.00
	FillingsUpdate:  mu: -0.213325549  nElectrons: 400.000000  magneticMoment: [ Abs: 0.04653  Tot: -0.03800 ]
	SubspaceRotationAdjust: set factor to 0.438
ElecMinimize: Iter:  11  F: -1478.197088857095878  |grad|_K:  2.115e-08  alpha:  2.447e-01  linmin: -8.852e-06  t[s]:   4856.67
	Linear fluid (dielectric constant: 78.4, screening length: 5.74355 Bohr) occupying 0.757291 of unit cell:	Completed after 0 iterations at t[s]:   4869.72
ElecMinimize: 	Predicted alpha/alphaT>3.000000, increasing alphaT to 7.341545e-01.
	Linear fluid (dielectric constant: 78.4, screening length: 5.74355 Bohr) occupying 0.757293 of unit cell:	Completed after 0 iterations at t[s]:   4886.42
	Linear fluid (dielectric constant: 78.4, screening length: 5.74355 Bohr) occupying 0.757293 of unit cell:	Completed after 0 iterations at t[s]:   4903.49
	FillingsUpdate:  mu: -0.213325712  nElectrons: 400.000000  magneticMoment: [ Abs: 0.04611  Tot: -0.03768 ]
	SubspaceRotationAdjust: set factor to 0.555
ElecMinimize: Iter:  12  F: -1478.197088936848559  |grad|_K:  2.124e-08  alpha:  8.030e-01  linmin:  3.711e-09  t[s]:   4926.77
	Linear fluid (dielectric constant: 78.4, screening length: 5.74355 Bohr) occupying 0.757296 of unit cell:	Completed after 1 iterations at t[s]:   4940.24
	Linear fluid (dielectric constant: 78.4, screening length: 5.74355 Bohr) occupying 0.757294 of unit cell:	Completed after 0 iterations at t[s]:   4958.11
	FillingsUpdate:  mu: -0.213298062  nElectrons: 400.000000  magneticMoment: [ Abs: 0.04589  Tot: -0.03750 ]
	SubspaceRotationAdjust: set factor to 0.483
ElecMinimize: Iter:  13  F: -1478.197088956098241  |grad|_K:  2.641e-08  alpha:  2.497e-01  linmin:  6.413e-06  t[s]:   4981.58
	Linear fluid (dielectric constant: 78.4, screening length: 5.74355 Bohr) occupying 0.757295 of unit cell:	Completed after 0 iterations at t[s]:   4994.59
	Linear fluid (dielectric constant: 78.4, screening length: 5.74355 Bohr) occupying 0.757295 of unit cell:	Completed after 0 iterations at t[s]:   5011.54
	FillingsUpdate:  mu: -0.213297967  nElectrons: 400.000000  magneticMoment: [ Abs: 0.04564  Tot: -0.03730 ]
	SubspaceRotationAdjust: set factor to 0.575
ElecMinimize: Iter:  14  F: -1478.197088968107892  |grad|_K:  2.557e-08  alpha:  1.344e-01  linmin: -7.646e-09  t[s]:   5034.42
	Linear fluid (dielectric constant: 78.4, screening length: 5.74355 Bohr) occupying 0.757295 of unit cell:	Completed after 1 iterations at t[s]:   5047.68
	Linear fluid (dielectric constant: 78.4, screening length: 5.74355 Bohr) occupying 0.757295 of unit cell:	Completed after 0 iterations at t[s]:   5065.82
ElecMinimize: 	Step increased F by 1.576745e-08, reducing alpha to 4.830218e-03.
	Linear fluid (dielectric constant: 78.4, screening length: 5.74355 Bohr) occupying 0.757295 of unit cell:	Completed after 0 iterations at t[s]:   5100.71
ElecMinimize: 	Step increased F by 1.943590e-08, reducing alpha to 4.830218e-04.
	Linear fluid (dielectric constant: 78.4, screening length: 5.74355 Bohr) occupying 0.757295 of unit cell:	Completed after 0 iterations at t[s]:   5134.46
ElecMinimize: 	Step increased F by 1.984745e-08, reducing alpha to 4.830218e-05.
ElecMinimize: 	Step failed to reduce F after 3 attempts. Quitting step.
ElecMinimize: 	Undoing step.
	Linear fluid (dielectric constant: 78.4, screening length: 5.74355 Bohr) occupying 0.757295 of unit cell:	Completed after 0 iterations at t[s]:   5168.52
ElecMinimize: 	Step failed: resetting search direction.
	FillingsUpdate:  mu: -0.213313449  nElectrons: 400.000000  magneticMoment: [ Abs: 0.04564  Tot: -0.03730 ]
	SubspaceRotationAdjust: set factor to 0.791
ElecMinimize: Iter:  15  F: -1478.197088948211558  |grad|_K:  1.657e-08  alpha:  4.830e-05
	Linear fluid (dielectric constant: 78.4, screening length: 5.74355 Bohr) occupying 0.757295 of unit cell:	Completed after 0 iterations at t[s]:   5205.11
ElecMinimize: 	Predicted alpha/alphaT>3.000000, increasing alphaT to 4.032818e-01.
	Linear fluid (dielectric constant: 78.4, screening length: 5.74355 Bohr) occupying 0.757294 of unit cell:	Completed after 0 iterations at t[s]:   5222.27
	Linear fluid (dielectric constant: 78.4, screening length: 5.74355 Bohr) occupying 0.757294 of unit cell:	Completed after 0 iterations at t[s]:   5239.30
	FillingsUpdate:  mu: -0.213312991  nElectrons: 400.000000  magneticMoment: [ Abs: 0.04544  Tot: -0.03714 ]
	SubspaceRotationAdjust: set factor to 0.996
ElecMinimize: Iter:  16  F: -1478.197088972143547  |grad|_K:  1.212e-08  alpha:  4.223e-01  linmin: -1.948e-07  t[s]:   5262.15
	Linear fluid (dielectric constant: 78.4, screening length: 5.74355 Bohr) occupying 0.757294 of unit cell:	Completed after 1 iterations at t[s]:   5275.52
	Linear fluid (dielectric constant: 78.4, screening length: 5.74355 Bohr) occupying 0.757294 of unit cell:	Completed after 0 iterations at t[s]:   5293.31
ElecMinimize: 	Step increased F by 1.002104e-08, reducing alpha to 6.364991e-03.
	Linear fluid (dielectric constant: 78.4, screening length: 5.74355 Bohr) occupying 0.757294 of unit cell:	Completed after 0 iterations at t[s]:   5327.75
ElecMinimize: 	Step increased F by 3.253717e-09, reducing alpha to 6.364991e-04.
	Linear fluid (dielectric constant: 78.4, screening length: 5.74355 Bohr) occupying 0.757294 of unit cell:	Completed after 0 iterations at t[s]:   5361.65
ElecMinimize: 	Step increased F by 2.552952e-09, reducing alpha to 6.364991e-05.
ElecMinimize: 	Step failed to reduce F after 3 attempts. Quitting step.
ElecMinimize: 	Undoing step.
	Linear fluid (dielectric constant: 78.4, screening length: 5.74355 Bohr) occupying 0.757294 of unit cell:	Completed after 0 iterations at t[s]:   5395.64
ElecMinimize: 	Step failed: resetting search direction.
	FillingsUpdate:  mu: -0.213351187  nElectrons: 400.000000  magneticMoment: [ Abs: 0.04544  Tot: -0.03714 ]
	SubspaceRotationAdjust: set factor to 0.657
ElecMinimize: Iter:  17  F: -1478.197088969623110  |grad|_K:  3.733e-08  alpha:  6.365e-05
	Linear fluid (dielectric constant: 78.4, screening length: 5.74355 Bohr) occupying 0.757295 of unit cell:	Completed after 2 iterations at t[s]:   5432.98
	Linear fluid (dielectric constant: 78.4, screening length: 5.74355 Bohr) occupying 0.757294 of unit cell:	Completed after 2 iterations at t[s]:   5451.25
ElecMinimize: 	Step increased F by 3.025889e-09, reducing alpha to 8.740175e-03.
	Linear fluid (dielectric constant: 78.4, screening length: 5.74355 Bohr) occupying 0.757294 of unit cell:	Completed after 0 iterations at t[s]:   5485.89
	FillingsUpdate:  mu: -0.213300090  nElectrons: 400.000000  magneticMoment: [ Abs: 0.04544  Tot: -0.03713 ]
	SubspaceRotationAdjust: set factor to 0.271
ElecMinimize: Iter:  18  F: -1478.197088981118441  |grad|_K:  1.548e-08  alpha:  8.740e-03  linmin:  2.764e-04  t[s]:   5508.78
	Linear fluid (dielectric constant: 78.4, screening length: 5.74355 Bohr) occupying 0.757294 of unit cell:	Completed after 0 iterations at t[s]:   5522.13
ElecMinimize: 	Wrong curvature in test step, increasing alphaT to 2.622053e-02.
	Linear fluid (dielectric constant: 78.4, screening length: 5.74355 Bohr) occupying 0.757294 of unit cell:	Completed after 0 iterations at t[s]:   5537.24
	FillingsUpdate:  mu: -0.213300082  nElectrons: 400.000000  magneticMoment: [ Abs: 0.04543  Tot: -0.03713 ]
	SubspaceRotationAdjust: set factor to 0.378
ElecMinimize: Iter:  19  F: -1478.197088981766228  |grad|_K:  1.240e-08  alpha: -9.767e-02  linmin: -1.575e-04  t[s]:   5560.95
	Linear fluid (dielectric constant: 78.4, screening length: 5.74355 Bohr) occupying 0.757293 of unit cell:	Completed after 2 iterations at t[s]:   5574.66
	Linear fluid (dielectric constant: 78.4, screening length: 5.74355 Bohr) occupying 0.757294 of unit cell:	Completed after 1 iterations at t[s]:   5592.42
ElecMinimize: 	Step increased F by 1.127319e-08, reducing alpha to 1.289311e-02.
	Linear fluid (dielectric constant: 78.4, screening length: 5.74355 Bohr) occupying 0.757294 of unit cell:	Completed after 0 iterations at t[s]:   5626.90
	FillingsUpdate:  mu: -0.213367617  nElectrons: 400.000000  magneticMoment: [ Abs: 0.04542  Tot: -0.03712 ]
	SubspaceRotationAdjust: set factor to 0.281
ElecMinimize: Iter:  20  F: -1478.197088983189815  |grad|_K:  3.390e-08  alpha:  1.289e-02  linmin:  1.195e-04  t[s]:   5649.85
ElecMinimize: Converged (|Delta F|<1.000000e-08 for 2 iters).
Setting wave functions to eigenvectors of Hamiltonian
Single-point solvation energy estimate, DeltaF = +0.014052775017035

# Ionic positions in lattice coordinates:
ion V   0.083332210555556   0.166667776027779   0.500000008835160 1
ion V   0.333332210555556   0.166667776027779   0.500000008835160 1
ion V   0.583332210555556   0.166667776027779   0.500000008835160 1
ion V   0.833332210555556   0.166667776027779   0.500000008835160 1
ion V   0.083332210555556   0.416667776027779   0.500000008835160 1
ion V   0.333332210555556   0.416667776027779   0.500000008835160 1
ion V   0.583332210555556   0.416667776027779   0.500000008835160 1
ion V   0.833332210555556   0.416667776027779   0.500000008835160 1
ion V   0.083332210555556   0.666667776027778   0.500000008835160 1
ion V   0.333332210555556   0.666667776027778   0.500000008835160 1
ion V   0.583332210555556   0.666667776027778   0.500000008835160 1
ion V   0.833332210555556   0.666667776027778   0.500000008835160 1
ion V   0.083332210555556   0.916667776027778   0.500000008835160 1
ion V   0.333332210555556   0.916667776027778   0.500000008835160 1
ion V   0.583332210555556   0.916667776027778   0.500000008835160 1
ion V   0.833332210555556   0.916667776027778   0.500000008835160 1
ion S  -0.000001122777777   0.000001109361112   0.417132885347455 1
ion S  -0.000001122777777   0.000001109361112   0.582867132322865 1
ion S   0.249998877222223   0.000001109361112   0.417132885347455 1
ion S   0.249998877222223   0.000001109361112   0.582867132322865 1
ion S   0.499998877222223   0.000001109361112   0.417132885347455 1
ion S   0.499998877222223   0.000001109361112   0.582867132322865 1
ion S   0.749998877222223   0.000001109361112   0.417132885347455 1
ion S   0.749998877222223   0.000001109361112   0.582867132322865 1
ion S   0.999998877222223   0.250001109361112   0.417132885347455 1
ion S   0.999998877222223   0.250001109361112   0.582867132322865 1
ion S   0.249998877222223   0.250001109361112   0.417132885347455 1
ion S   0.249998877222223   0.250001109361112   0.582867132322865 1
ion S   0.499998877222223   0.250001109361112   0.417132885347455 1
ion S   0.499998877222223   0.250001109361112   0.582867132322865 1
ion S   0.749998877222223   0.250001109361112   0.417132885347455 1
ion S   0.749998877222223   0.250001109361112   0.582867132322865 1
ion S   0.999998877222223   0.500001109361112   0.417132885347455 1
ion S   0.999998877222223   0.500001109361112   0.582867132322865 1
ion S   0.249998877222223   0.500001109361112   0.417132885347455 1
ion S   0.249998877222223   0.500001109361112   0.582867132322865 1
ion S   0.499998877222223   0.500001109361112   0.417132885347455 1
ion S   0.499998877222223   0.500001109361112   0.582867132322865 1
ion S   0.749998877222223   0.500001109361112   0.417132885347455 1
ion S   0.749998877222223   0.500001109361112   0.582867132322865 1
ion S   0.999998877222223   0.750001109361112   0.417132885347455 1
ion S   0.999998877222223   0.750001109361112   0.582867132322865 1
ion S   0.249998877222223   0.750001109361112   0.417132885347455 1
ion S   0.249998877222223   0.750001109361112   0.582867132322865 1
ion S   0.499998877222223   0.750001109361112   0.417132885347455 1
ion S   0.499998877222223   0.750001109361112   0.582867132322865 1
ion S   0.749998877222223   0.750001109361112   0.417132885347455 1
ion S   0.749998877222223   0.750001109361112   0.582867132322865 1


# Forces in Lattice coordinates:
force V  -0.000000000000000   0.000000000000000  -0.000000000000000 1
force V   0.000000000000000  -0.000000000000000  -0.000000000000000 1
force V  -0.000000000000000   0.000000000000000   0.000000000000000 1
force V  -0.000000000000000   0.000000000000000   0.000000000000000 1
force V  -0.000000000000000   0.000000000000000   0.000000000000000 1
force V  -0.000000000000000  -0.000000000000000  -0.000000000000000 1
force V  -0.000000000000000  -0.000000000000000   0.000000000000000 1
force V   0.000000000000000  -0.000000000000000   0.000000000000000 1
force V   0.000000000000000  -0.000000000000000   0.000000000000000 1
force V  -0.000000000000000  -0.000000000000000  -0.000000000000000 1
force V   0.000000000000000  -0.000000000000000   0.000000000000000 1
force V   0.000000000000000  -0.000000000000000   0.000000000000000 1
force V  -0.000000000000000   0.000000000000000  -0.000000000000000 1
force V   0.000000000000000   0.000000000000000  -0.000000000000000 1
force V  -0.000000000000000   0.000000000000000   0.000000000000000 1
force V  -0.000000000000000   0.000000000000000  -0.000000000000000 1
force S  -0.000000000000000  -0.000000000000000   0.034517816825539 1
force S   0.000000000000000   0.000000000000000  -0.034517816825538 1
force S   0.000000000000000  -0.000000000000000   0.034517816825653 1
force S   0.000000000000000  -0.000000000000000  -0.034517816825539 1
force S   0.000000000000000  -0.000000000000000   0.034517816825879 1
force S  -0.000000000000000   0.000000000000000  -0.034517816825654 1
force S   0.000000000000000  -0.000000000000000   0.034517816825653 1
force S   0.000000000000000   0.000000000000000  -0.034517816825653 1
force S   0.000000000000000  -0.000000000000000   0.034517816825539 1
force S   0.000000000000000   0.000000000000000  -0.034517816825538 1
force S   0.000000000000000  -0.000000000000000   0.034517816825653 1
force S  -0.000000000000000  -0.000000000000000  -0.034517816825539 1
force S  -0.000000000000000  -0.000000000000000   0.034517816825652 1
force S  -0.000000000000000  -0.000000000000000  -0.034517816825653 1
force S   0.000000000000000  -0.000000000000000   0.034517816825766 1
force S  -0.000000000000000  -0.000000000000000  -0.034517816825653 1
force S  -0.000000000000000  -0.000000000000000   0.034517816825767 1
force S  -0.000000000000000   0.000000000000000  -0.034517816825766 1
force S   0.000000000000000  -0.000000000000000   0.034517816825653 1
force S  -0.000000000000000   0.000000000000000  -0.034517816825766 1
force S  -0.000000000000000  -0.000000000000000   0.034517816825539 1
force S   0.000000000000000  -0.000000000000000  -0.034517816825653 1
force S   0.000000000000000  -0.000000000000000   0.034517816825652 1
force S   0.000000000000000  -0.000000000000000  -0.034517816825766 1
force S  -0.000000000000000   0.000000000000000   0.034517816825653 1
force S   0.000000000000000   0.000000000000000  -0.034517816825538 1
force S   0.000000000000000  -0.000000000000000   0.034517816825766 1
force S   0.000000000000000  -0.000000000000000  -0.034517816825766 1
force S   0.000000000000000  -0.000000000000000   0.034517816825652 1
force S   0.000000000000000  -0.000000000000000  -0.034517816825653 1
force S   0.000000000000000  -0.000000000000000   0.034517816825766 1
force S   0.000000000000000  -0.000000000000000  -0.034517816825766 1

# Energy components:
   A_diel =        0.0139561740315829
   Eewald =     8146.9844070983444908
       EH =     9373.3694746046185173
     Eloc =   -19272.0677795675801462
      Enl =       79.6924891276306653
      Exc =     -292.0721654519369963
 Exc_core =       69.5498412724445956
       KE =      416.4362436546099389
-------------------------------------
     Etot =    -1478.0935330878373861
       TS =        0.1035558953524001
-------------------------------------
        F =    -1478.1970889831898148

IonicMinimize: Iter:   0  F: -1478.197088983189815  |grad|_K:  4.789e-04  t[s]:   5663.09

#--- Lowdin population analysis ---
# oxidation-state V +0.621 +0.621 +0.621 +0.621 +0.621 +0.621 +0.621 +0.621 +0.621 +0.621 +0.621 +0.621 +0.621 +0.621 +0.621 +0.621
# magnetic-moments V -0.003 -0.003 -0.003 -0.003 -0.003 -0.003 -0.003 -0.003 -0.003 -0.003 -0.003 -0.003 -0.003 -0.003 -0.003 -0.003
# oxidation-state S -0.206 -0.206 -0.206 -0.206 -0.206 -0.206 -0.206 -0.206 -0.206 -0.206 -0.206 -0.206 -0.206 -0.206 -0.206 -0.206 -0.206 -0.206 -0.206 -0.206 -0.206 -0.206 -0.206 -0.206 -0.206 -0.206 -0.206 -0.206 -0.206 -0.206 -0.206 -0.206
# magnetic-moments S +0.000 +0.000 +0.000 +0.000 +0.000 +0.000 +0.000 +0.000 +0.000 +0.000 +0.000 +0.000 +0.000 +0.000 +0.000 +0.000 +0.000 +0.000 +0.000 +0.000 +0.000 +0.000 +0.000 +0.000 +0.000 +0.000 +0.000 +0.000 +0.000 +0.000 +0.000 +0.000

	Linear fluid (dielectric constant: 78.4, screening length: 5.74355 Bohr) occupying 0.757325 of unit cell:	Completed after 6 iterations at t[s]:   5678.37

-------- Electronic minimization -----------
	Linear fluid (dielectric constant: 78.4, screening length: 5.74355 Bohr) occupying 0.757325 of unit cell:	Completed after 0 iterations at t[s]:   5694.30
	FillingsUpdate:  mu: -0.213103371  nElectrons: 400.000000  magneticMoment: [ Abs: 0.04466  Tot: -0.03645 ]
ElecMinimize: Iter:   0  F: -1478.197115322749369  |grad|_K:  2.032e-07  alpha:  1.000e+00
	Linear fluid (dielectric constant: 78.4, screening length: 5.74355 Bohr) occupying 0.757321 of unit cell:	Completed after 2 iterations at t[s]:   5732.24
	Linear fluid (dielectric constant: 78.4, screening length: 5.74355 Bohr) occupying 0.757324 of unit cell:	Completed after 2 iterations at t[s]:   5750.70
	FillingsUpdate:  mu: -0.213390144  nElectrons: 400.000000  magneticMoment: [ Abs: 0.04457  Tot: -0.03639 ]
	SubspaceRotationAdjust: set factor to 0.246
ElecMinimize: Iter:   1  F: -1478.197118182337817  |grad|_K:  1.033e-07  alpha:  3.313e-01  linmin:  2.409e-04  t[s]:   5775.02
	Linear fluid (dielectric constant: 78.4, screening length: 5.74355 Bohr) occupying 0.757323 of unit cell:	Completed after 2 iterations at t[s]:   5788.92
	Linear fluid (dielectric constant: 78.4, screening length: 5.74355 Bohr) occupying 0.757323 of unit cell:	Completed after 2 iterations at t[s]:   5806.88
	FillingsUpdate:  mu: -0.213350045  nElectrons: 400.000000  magneticMoment: [ Abs: 0.04435  Tot: -0.03624 ]
	SubspaceRotationAdjust: set factor to 0.293
ElecMinimize: Iter:   2  F: -1478.197119619434716  |grad|_K:  4.805e-08  alpha:  6.499e-01  linmin: -8.047e-04  t[s]:   5830.51
	Linear fluid (dielectric constant: 78.4, screening length: 5.74355 Bohr) occupying 0.757322 of unit cell:	Completed after 0 iterations at t[s]:   5843.47
	Linear fluid (dielectric constant: 78.4, screening length: 5.74355 Bohr) occupying 0.757321 of unit cell:	Completed after 2 iterations at t[s]:   5860.88
	FillingsUpdate:  mu: -0.213324588  nElectrons: 400.000000  magneticMoment: [ Abs: 0.04398  Tot: -0.03596 ]
	SubspaceRotationAdjust: set factor to 0.351
ElecMinimize: Iter:   3  F: -1478.197120138884202  |grad|_K:  4.853e-08  alpha:  1.258e+00  linmin:  9.531e-04  t[s]:   5885.25
	Linear fluid (dielectric constant: 78.4, screening length: 5.74355 Bohr) occupying 0.757319 of unit cell:	Completed after 0 iterations at t[s]:   5898.53
	Linear fluid (dielectric constant: 78.4, screening length: 5.74355 Bohr) occupying 0.757320 of unit cell:	Completed after 0 iterations at t[s]:   5915.69
	FillingsUpdate:  mu: -0.213324072  nElectrons: 400.000000  magneticMoment: [ Abs: 0.04363  Tot: -0.03569 ]
	SubspaceRotationAdjust: set factor to 0.406
ElecMinimize: Iter:   4  F: -1478.197120408008459  |grad|_K:  3.535e-08  alpha:  6.483e-01  linmin: -6.708e-07  t[s]:   5938.37
	Linear fluid (dielectric constant: 78.4, screening length: 5.74355 Bohr) occupying 0.757319 of unit cell:	Completed after 1 iterations at t[s]:   5951.50
	Linear fluid (dielectric constant: 78.4, screening length: 5.74355 Bohr) occupying 0.757320 of unit cell:	Completed after 0 iterations at t[s]:   5969.03
	FillingsUpdate:  mu: -0.213333593  nElectrons: 400.000000  magneticMoment: [ Abs: 0.04338  Tot: -0.03549 ]
	SubspaceRotationAdjust: set factor to 0.445
ElecMinimize: Iter:   5  F: -1478.197120514210383  |grad|_K:  1.996e-08  alpha:  4.394e-01  linmin: -1.603e-04  t[s]:   5992.54
	Linear fluid (dielectric constant: 78.4, screening length: 5.74355 Bohr) occupying 0.757320 of unit cell:	Completed after 0 iterations at t[s]:   6005.80
	Linear fluid (dielectric constant: 78.4, screening length: 5.74355 Bohr) occupying 0.757320 of unit cell:	Completed after 0 iterations at t[s]:   6023.12
	FillingsUpdate:  mu: -0.213332973  nElectrons: 400.000000  magneticMoment: [ Abs: 0.04307  Tot: -0.03523 ]
	SubspaceRotationAdjust: set factor to 0.454
ElecMinimize: Iter:   6  F: -1478.197120567057709  |grad|_K:  1.164e-08  alpha:  6.206e-01  linmin:  4.640e-07  t[s]:   6045.88
	Linear fluid (dielectric constant: 78.4, screening length: 5.74355 Bohr) occupying 0.757320 of unit cell:	Completed after 1 iterations at t[s]:   6059.04
	Linear fluid (dielectric constant: 78.4, screening length: 5.74355 Bohr) occupying 0.757320 of unit cell:	Completed after 0 iterations at t[s]:   6076.83
ElecMinimize: 	Step increased F by 1.455010e-08, reducing alpha to 2.010844e-02.
	Linear fluid (dielectric constant: 78.4, screening length: 5.74355 Bohr) occupying 0.757320 of unit cell:	Completed after 0 iterations at t[s]:   6111.15
ElecMinimize: 	Step increased F by 1.835178e-08, reducing alpha to 2.010844e-03.
	Linear fluid (dielectric constant: 78.4, screening length: 5.74355 Bohr) occupying 0.757320 of unit cell:	Completed after 0 iterations at t[s]:   6145.62
ElecMinimize: 	Step increased F by 1.885837e-08, reducing alpha to 2.010844e-04.
ElecMinimize: 	Step failed to reduce F after 3 attempts. Quitting step.
ElecMinimize: 	Undoing step.
	Linear fluid (dielectric constant: 78.4, screening length: 5.74355 Bohr) occupying 0.757320 of unit cell:	Completed after 0 iterations at t[s]:   6179.67
ElecMinimize: 	Step failed: resetting search direction.
	FillingsUpdate:  mu: -0.213350532  nElectrons: 400.000000  magneticMoment: [ Abs: 0.04307  Tot: -0.03523 ]
	SubspaceRotationAdjust: set factor to 0.428
ElecMinimize: Iter:   7  F: -1478.197120548169323  |grad|_K:  1.625e-08  alpha:  2.011e-04
	Linear fluid (dielectric constant: 78.4, screening length: 5.74355 Bohr) occupying 0.757320 of unit cell:	Completed after 0 iterations at t[s]:   6215.78
	Linear fluid (dielectric constant: 78.4, screening length: 5.74355 Bohr) occupying 0.757320 of unit cell:	Completed after 1 iterations at t[s]:   6233.85
ElecMinimize: 	Step increased F by 8.913048e-11, reducing alpha to 8.310595e-02.
	Linear fluid (dielectric constant: 78.4, screening length: 5.74355 Bohr) occupying 0.757320 of unit cell:	Completed after 0 iterations at t[s]:   6268.61
	FillingsUpdate:  mu: -0.213326399  nElectrons: 400.000000  magneticMoment: [ Abs: 0.04304  Tot: -0.03520 ]
	SubspaceRotationAdjust: set factor to 0.298
ElecMinimize: Iter:   8  F: -1478.197120577666965  |grad|_K:  1.267e-08  alpha:  8.311e-02  linmin: -2.081e-04  t[s]:   6291.68
	Linear fluid (dielectric constant: 78.4, screening length: 5.74355 Bohr) occupying 0.757320 of unit cell:	Completed after 0 iterations at t[s]:   6304.56
ElecMinimize: 	Predicted alpha/alphaT>3.000000, increasing alphaT to 2.493178e-01.
	Linear fluid (dielectric constant: 78.4, screening length: 5.74355 Bohr) occupying 0.757320 of unit cell:	Completed after 0 iterations at t[s]:   6321.38
	Linear fluid (dielectric constant: 78.4, screening length: 5.74355 Bohr) occupying 0.757320 of unit cell:	Completed after 0 iterations at t[s]:   6339.07
	FillingsUpdate:  mu: -0.213326446  nElectrons: 400.000000  magneticMoment: [ Abs: 0.04286  Tot: -0.03505 ]
	SubspaceRotationAdjust: set factor to 0.445
ElecMinimize: Iter:   9  F: -1478.197120589217775  |grad|_K:  9.309e-09  alpha:  3.232e-01  linmin:  2.635e-05  t[s]:   6362.73
	Linear fluid (dielectric constant: 78.4, screening length: 5.74355 Bohr) occupying 0.757320 of unit cell:	Completed after 1 iterations at t[s]:   6376.38
	Linear fluid (dielectric constant: 78.4, screening length: 5.74355 Bohr) occupying 0.757320 of unit cell:	Completed after 0 iterations at t[s]:   6393.82
ElecMinimize: 	Step increased F by 2.050024e-08, reducing alpha to 5.621082e-03.
	Linear fluid (dielectric constant: 78.4, screening length: 5.74355 Bohr) occupying 0.757320 of unit cell:	Completed after 0 iterations at t[s]:   6427.87
ElecMinimize: 	Step increased F by 2.088495e-08, reducing alpha to 5.621082e-04.
	Linear fluid (dielectric constant: 78.4, screening length: 5.74355 Bohr) occupying 0.757320 of unit cell:	Completed after 0 iterations at t[s]:   6462.62
ElecMinimize: 	Step increased F by 2.086608e-08, reducing alpha to 5.621082e-05.
ElecMinimize: 	Step failed to reduce F after 3 attempts. Quitting step.
ElecMinimize: 	Undoing step.
	Linear fluid (dielectric constant: 78.4, screening length: 5.74355 Bohr) occupying 0.757320 of unit cell:	Completed after 0 iterations at t[s]:   6496.76
ElecMinimize: 	Step failed: resetting search direction.
	FillingsUpdate:  mu: -0.213338083  nElectrons: 400.000000  magneticMoment: [ Abs: 0.04286  Tot: -0.03505 ]
	SubspaceRotationAdjust: set factor to 0.376
ElecMinimize: Iter:  10  F: -1478.197120568361925  |grad|_K:  7.631e-09  alpha:  5.621e-05
	Linear fluid (dielectric constant: 78.4, screening length: 5.74355 Bohr) occupying 0.757320 of unit cell:	Completed after 0 iterations at t[s]:   6532.75
	Linear fluid (dielectric constant: 78.4, screening length: 5.74355 Bohr) occupying 0.757320 of unit cell:	Completed after 0 iterations at t[s]:   6549.91
	FillingsUpdate:  mu: -0.213338313  nElectrons: 400.000000  magneticMoment: [ Abs: 0.04269  Tot: -0.03491 ]
	SubspaceRotationAdjust: set factor to 0.481
ElecMinimize: Iter:  11  F: -1478.197120574177688  |grad|_K:  5.361e-09  alpha:  4.759e-01  linmin: -2.967e-05  t[s]:   6573.53
	Linear fluid (dielectric constant: 78.4, screening length: 5.74355 Bohr) occupying 0.757320 of unit cell:	Completed after 0 iterations at t[s]:   6586.95
	Linear fluid (dielectric constant: 78.4, screening length: 5.74355 Bohr) occupying 0.757320 of unit cell:	Completed after 0 iterations at t[s]:   6604.08
	FillingsUpdate:  mu: -0.213338957  nElectrons: 400.000000  magneticMoment: [ Abs: 0.04216  Tot: -0.03447 ]
	SubspaceRotationAdjust: set factor to 0.586
ElecMinimize: Iter:  12  F: -1478.197120581149193  |grad|_K:  4.422e-09  alpha:  1.112e+00  linmin: -1.760e-05  t[s]:   6627.02
ElecMinimize: Converged (|Delta F|<1.000000e-08 for 2 iters).
Setting wave functions to eigenvectors of Hamiltonian

# Ionic positions in lattice coordinates:
ion V   0.083332210555556   0.166667776027779   0.500000008835160 1
ion V   0.333332210555556   0.166667776027779   0.500000008835160 1
ion V   0.583332210555556   0.166667776027779   0.500000008835160 1
ion V   0.833332210555556   0.166667776027779   0.500000008835160 1
ion V   0.083332210555556   0.416667776027779   0.500000008835160 1
ion V   0.333332210555556   0.416667776027779   0.500000008835160 1
ion V   0.583332210555556   0.416667776027779   0.500000008835160 1
ion V   0.833332210555556   0.416667776027779   0.500000008835160 1
ion V   0.083332210555556   0.666667776027778   0.500000008835160 1
ion V   0.333332210555556   0.666667776027778   0.500000008835160 1
ion V   0.583332210555556   0.666667776027778   0.500000008835160 1
ion V   0.833332210555556   0.666667776027778   0.500000008835160 1
ion V   0.083332210555556   0.916667776027778   0.500000008835160 1
ion V   0.333332210555556   0.916667776027778   0.500000008835160 1
ion V   0.583332210555556   0.916667776027778   0.500000008835160 1
ion V   0.833332210555556   0.916667776027778   0.500000008835160 1
ion S  -0.000001122777777   0.000001109361112   0.417162785407828 1
ion S  -0.000001122777777   0.000001109361112   0.582837232262493 1
ion S   0.249998877222223   0.000001109361112   0.417162785407828 1
ion S   0.249998877222223   0.000001109361112   0.582837232262493 1
ion S   0.499998877222223   0.000001109361112   0.417162785407828 1
ion S   0.499998877222223   0.000001109361112   0.582837232262493 1
ion S   0.749998877222223   0.000001109361112   0.417162785407828 1
ion S   0.749998877222223   0.000001109361112   0.582837232262493 1
ion S   0.999998877222223   0.250001109361112   0.417162785407828 1
ion S   0.999998877222223   0.250001109361112   0.582837232262493 1
ion S   0.249998877222223   0.250001109361112   0.417162785407828 1
ion S   0.249998877222223   0.250001109361112   0.582837232262493 1
ion S   0.499998877222223   0.250001109361112   0.417162785407828 1
ion S   0.499998877222223   0.250001109361112   0.582837232262493 1
ion S   0.749998877222223   0.250001109361112   0.417162785407828 1
ion S   0.749998877222223   0.250001109361112   0.582837232262493 1
ion S   0.999998877222223   0.500001109361112   0.417162785407828 1
ion S   0.999998877222223   0.500001109361112   0.582837232262493 1
ion S   0.249998877222223   0.500001109361112   0.417162785407828 1
ion S   0.249998877222223   0.500001109361112   0.582837232262493 1
ion S   0.499998877222223   0.500001109361112   0.417162785407828 1
ion S   0.499998877222223   0.500001109361112   0.582837232262493 1
ion S   0.749998877222223   0.500001109361112   0.417162785407828 1
ion S   0.749998877222223   0.500001109361112   0.582837232262493 1
ion S   0.999998877222223   0.750001109361112   0.417162785407828 1
ion S   0.999998877222223   0.750001109361112   0.582837232262493 1
ion S   0.249998877222223   0.750001109361112   0.417162785407828 1
ion S   0.249998877222223   0.750001109361112   0.582837232262493 1
ion S   0.499998877222223   0.750001109361112   0.417162785407828 1
ion S   0.499998877222223   0.750001109361112   0.582837232262493 1
ion S   0.749998877222223   0.750001109361112   0.417162785407828 1
ion S   0.749998877222223   0.750001109361112   0.582837232262493 1


# Forces in Lattice coordinates:
force V   0.000000000000000  -0.000000000000000  -0.000000000000000 1
force V   0.000000000000000  -0.000000000000000  -0.000000000000000 1
[...]
	FillingsUpdate:  mu: -0.213533659  nElectrons: 400.000000  magneticMoment: [ Abs: 0.03767  Tot: -0.03077 ]
	SubspaceRotationAdjust: set factor to 0.192
ElecMinimize: Iter:   1  F: -1478.197193786694470  |grad|_K:  1.445e-07  alpha:  4.793e-01  linmin:  1.941e-04  t[s]:   7993.58
	Linear fluid (dielectric constant: 78.4, screening length: 5.74355 Bohr) occupying 0.757464 of unit cell:	Completed after 2 iterations at t[s]:   8007.15
	Linear fluid (dielectric constant: 78.4, screening length: 5.74355 Bohr) occupying 0.757464 of unit cell:	Completed after 0 iterations at t[s]:   8024.99
	FillingsUpdate:  mu: -0.213460737  nElectrons: 400.000000  magneticMoment: [ Abs: 0.03754  Tot: -0.03069 ]
	SubspaceRotationAdjust: set factor to 0.258
ElecMinimize: Iter:   2  F: -1478.197195979227672  |grad|_K:  8.081e-08  alpha:  5.117e-01  linmin: -4.331e-04  t[s]:   8048.27
	Linear fluid (dielectric constant: 78.4, screening length: 5.74355 Bohr) occupying 0.757465 of unit cell:	Completed after 0 iterations at t[s]:   8061.80
	Linear fluid (dielectric constant: 78.4, screening length: 5.74355 Bohr) occupying 0.757466 of unit cell:	Completed after 1 iterations at t[s]:   8079.61
	FillingsUpdate:  mu: -0.213384142  nElectrons: 400.000000  magneticMoment: [ Abs: 0.03725  Tot: -0.03048 ]
	SubspaceRotationAdjust: set factor to 0.311
ElecMinimize: Iter:   3  F: -1478.197197253752165  |grad|_K:  7.722e-08  alpha:  1.166e+00  linmin:  1.964e-03  t[s]:   8102.83
	Linear fluid (dielectric constant: 78.4, screening length: 5.74355 Bohr) occupying 0.757467 of unit cell:	Completed after 2 iterations at t[s]:   8116.44
	Linear fluid (dielectric constant: 78.4, screening length: 5.74355 Bohr) occupying 0.757467 of unit cell:	Completed after 0 iterations at t[s]:   8134.13
	FillingsUpdate:  mu: -0.213391836  nElectrons: 400.000000  magneticMoment: [ Abs: 0.03693  Tot: -0.03024 ]
	SubspaceRotationAdjust: set factor to 0.374
ElecMinimize: Iter:   4  F: -1478.197197994056296  |grad|_K:  5.274e-08  alpha:  7.541e-01  linmin:  1.316e-04  t[s]:   8157.24
	Linear fluid (dielectric constant: 78.4, screening length: 5.74355 Bohr) occupying 0.757467 of unit cell:	Completed after 1 iterations at t[s]:   8171.17
	Linear fluid (dielectric constant: 78.4, screening length: 5.74355 Bohr) occupying 0.757467 of unit cell:	Completed after 0 iterations at t[s]:   8188.82
	FillingsUpdate:  mu: -0.213413533  nElectrons: 400.000000  magneticMoment: [ Abs: 0.03666  Tot: -0.03002 ]
	SubspaceRotationAdjust: set factor to 0.409
ElecMinimize: Iter:   5  F: -1478.197198337022883  |grad|_K:  4.015e-08  alpha:  6.136e-01  linmin: -8.960e-05  t[s]:   8212.31
	Linear fluid (dielectric constant: 78.4, screening length: 5.74355 Bohr) occupying 0.757466 of unit cell:	Completed after 0 iterations at t[s]:   8225.35
	Linear fluid (dielectric constant: 78.4, screening length: 5.74355 Bohr) occupying 0.757466 of unit cell:	Completed after 0 iterations at t[s]:   8242.07
	FillingsUpdate:  mu: -0.213413887  nElectrons: 400.000000  magneticMoment: [ Abs: 0.03639  Tot: -0.02979 ]
	SubspaceRotationAdjust: set factor to 0.492
ElecMinimize: Iter:   6  F: -1478.197198511779334  |grad|_K:  2.431e-08  alpha:  5.138e-01  linmin: -1.182e-06  t[s]:   8264.96
	Linear fluid (dielectric constant: 78.4, screening length: 5.74355 Bohr) occupying 0.757466 of unit cell:	Completed after 0 iterations at t[s]:   8278.24
	Linear fluid (dielectric constant: 78.4, screening length: 5.74355 Bohr) occupying 0.757466 of unit cell:	Completed after 1 iterations at t[s]:   8295.88
	FillingsUpdate:  mu: -0.213407983  nElectrons: 400.000000  magneticMoment: [ Abs: 0.03604  Tot: -0.02949 ]
	SubspaceRotationAdjust: set factor to 0.553
ElecMinimize: Iter:   7  F: -1478.197198564640985  |grad|_K:  1.590e-08  alpha:  6.939e-01  linmin:  3.117e-04  t[s]:   8319.97
	Linear fluid (dielectric constant: 78.4, screening length: 5.74355 Bohr) occupying 0.757465 of unit cell:	Completed after 0 iterations at t[s]:   8333.05
	Linear fluid (dielectric constant: 78.4, screening length: 5.74355 Bohr) occupying 0.757465 of unit cell:	Completed after 0 iterations at t[s]:   8350.07
	FillingsUpdate:  mu: -0.213408437  nElectrons: 400.000000  magneticMoment: [ Abs: 0.03571  Tot: -0.02921 ]
	SubspaceRotationAdjust: set factor to 0.669
ElecMinimize: Iter:   8  F: -1478.197198590374228  |grad|_K:  1.060e-08  alpha:  5.735e-01  linmin:  2.215e-06  t[s]:   8373.03
	Linear fluid (dielectric constant: 78.4, screening length: 5.74355 Bohr) occupying 0.757465 of unit cell:	Completed after 2 iterations at t[s]:   8386.59
	Linear fluid (dielectric constant: 78.4, screening length: 5.74355 Bohr) occupying 0.757465 of unit cell:	Completed after 0 iterations at t[s]:   8404.46
ElecMinimize: 	Step increased F by 3.564833e-08, reducing alpha to 9.895205e-03.
	Linear fluid (dielectric constant: 78.4, screening length: 5.74355 Bohr) occupying 0.757465 of unit cell:	Completed after 0 iterations at t[s]:   8439.47
ElecMinimize: 	Step increased F by 3.445280e-08, reducing alpha to 9.895205e-04.
	Linear fluid (dielectric constant: 78.4, screening length: 5.74355 Bohr) occupying 0.757465 of unit cell:	Completed after 0 iterations at t[s]:   8474.01
ElecMinimize: 	Step increased F by 3.437913e-08, reducing alpha to 9.895205e-05.
ElecMinimize: 	Step failed to reduce F after 3 attempts. Quitting step.
ElecMinimize: 	Undoing step.
	Linear fluid (dielectric constant: 78.4, screening length: 5.74355 Bohr) occupying 0.757465 of unit cell:	Completed after 0 iterations at t[s]:   8508.25
ElecMinimize: 	Step failed: resetting search direction.
	FillingsUpdate:  mu: -0.213382773  nElectrons: 400.000000  magneticMoment: [ Abs: 0.03571  Tot: -0.02921 ]
	SubspaceRotationAdjust: set factor to 0.454
ElecMinimize: Iter:   9  F: -1478.197198556054218  |grad|_K:  3.560e-08  alpha:  9.895e-05
	Linear fluid (dielectric constant: 78.4, screening length: 5.74355 Bohr) occupying 0.757464 of unit cell:	Completed after 2 iterations at t[s]:   8544.87
	Linear fluid (dielectric constant: 78.4, screening length: 5.74355 Bohr) occupying 0.757465 of unit cell:	Completed after 2 iterations at t[s]:   8563.31
	FillingsUpdate:  mu: -0.213439909  nElectrons: 400.000000  magneticMoment: [ Abs: 0.03564  Tot: -0.02915 ]
	SubspaceRotationAdjust: set factor to 0.212
ElecMinimize: Iter:  10  F: -1478.197198581887051  |grad|_K:  1.802e-08  alpha:  1.420e-01  linmin:  2.193e-03  t[s]:   8586.71
	Linear fluid (dielectric constant: 78.4, screening length: 5.74355 Bohr) occupying 0.757465 of unit cell:	Completed after 0 iterations at t[s]:   8599.73
ElecMinimize: 	Predicted alpha/alphaT>3.000000, increasing alphaT to 4.259322e-01.
	Linear fluid (dielectric constant: 78.4, screening length: 5.74355 Bohr) occupying 0.757465 of unit cell:	Completed after 0 iterations at t[s]:   8616.85
	Linear fluid (dielectric constant: 78.4, screening length: 5.74355 Bohr) occupying 0.757465 of unit cell:	Completed after 0 iterations at t[s]:   8633.99
	FillingsUpdate:  mu: -0.213437704  nElectrons: 400.000000  magneticMoment: [ Abs: 0.03542  Tot: -0.02897 ]
	SubspaceRotationAdjust: set factor to 0.251
ElecMinimize: Iter:  11  F: -1478.197198606952270  |grad|_K:  1.165e-08  alpha:  4.759e-01  linmin: -1.107e-03  t[s]:   8657.75
	Linear fluid (dielectric constant: 78.4, screening length: 5.74355 Bohr) occupying 0.757465 of unit cell:	Completed after 0 iterations at t[s]:   8671.18
	Linear fluid (dielectric constant: 78.4, screening length: 5.74355 Bohr) occupying 0.757465 of unit cell:	Completed after 2 iterations at t[s]:   8688.84
ElecMinimize: 	Step increased F by 1.215901e-07, reducing alpha to 1.075468e-01.
	Linear fluid (dielectric constant: 78.4, screening length: 5.74355 Bohr) occupying 0.757465 of unit cell:	Completed after 2 iterations at t[s]:   8724.21
ElecMinimize: 	Step increased F by 5.198899e-09, reducing alpha to 1.075468e-02.
	Linear fluid (dielectric constant: 78.4, screening length: 5.74355 Bohr) occupying 0.757465 of unit cell:	Completed after 0 iterations at t[s]:   8758.71
ElecMinimize: 	Step increased F by 1.525905e-09, reducing alpha to 1.075468e-03.
ElecMinimize: 	Step failed to reduce F after 3 attempts. Quitting step.
ElecMinimize: 	Undoing step.
	Linear fluid (dielectric constant: 78.4, screening length: 5.74355 Bohr) occupying 0.757465 of unit cell:	Completed after 0 iterations at t[s]:   8793.57
ElecMinimize: 	Step failed: resetting search direction.
	FillingsUpdate:  mu: -0.213387568  nElectrons: 400.000000  magneticMoment: [ Abs: 0.03541  Tot: -0.02896 ]
	SubspaceRotationAdjust: set factor to 0.19
ElecMinimize: Iter:  12  F: -1478.197198605499580  |grad|_K:  1.318e-08  alpha:  1.075e-03
	Linear fluid (dielectric constant: 78.4, screening length: 5.74355 Bohr) occupying 0.757465 of unit cell:	Completed after 0 iterations at t[s]:   8829.43
	Linear fluid (dielectric constant: 78.4, screening length: 5.74355 Bohr) occupying 0.757465 of unit cell:	Completed after 2 iterations at t[s]:   8847.06
ElecMinimize: 	Step increased F by 6.875757e-08, reducing alpha to 8.612636e-02.
	Linear fluid (dielectric constant: 78.4, screening length: 5.74355 Bohr) occupying 0.757465 of unit cell:	Completed after 0 iterations at t[s]:   8882.09
	FillingsUpdate:  mu: -0.213441201  nElectrons: 400.000000  magneticMoment: [ Abs: 0.03540  Tot: -0.02895 ]
	SubspaceRotationAdjust: set factor to 0.138
ElecMinimize: Iter:  13  F: -1478.197198620298650  |grad|_K:  1.927e-08  alpha:  8.613e-02  linmin:  2.838e-03  t[s]:   8906.08
ElecMinimize: 	Bad step direction: g.d > 0.
ElecMinimize: 	Undoing step.
	Linear fluid (dielectric constant: 78.4, screening length: 5.74355 Bohr) occupying 0.757465 of unit cell:	Completed after 0 iterations at t[s]:   8919.16
ElecMinimize: 	Step failed: resetting search direction.
	FillingsUpdate:  mu: -0.213441201  nElectrons: 400.000000  magneticMoment: [ Abs: 0.03540  Tot: -0.02895 ]
	SubspaceRotationAdjust: set factor to 0.162
ElecMinimize: Iter:  14  F: -1478.197198620302061  |grad|_K:  1.791e-08  alpha:  0.000e+00
	Linear fluid (dielectric constant: 78.4, screening length: 5.74355 Bohr) occupying 0.757465 of unit cell:	Completed after 0 iterations at t[s]:   8954.95
ElecMinimize: 	Predicted alpha/alphaT>3.000000, increasing alphaT to 2.583791e-01.
	Linear fluid (dielectric constant: 78.4, screening length: 5.74355 Bohr) occupying 0.757465 of unit cell:	Completed after 2 iterations at t[s]:   8972.40
	Linear fluid (dielectric constant: 78.4, screening length: 5.74355 Bohr) occupying 0.757465 of unit cell:	Completed after 0 iterations at t[s]:   8990.60
ElecMinimize: 	Step increased F by 2.064417e-08, reducing alpha to 6.659731e-03.
	Linear fluid (dielectric constant: 78.4, screening length: 5.74355 Bohr) occupying 0.757465 of unit cell:	Completed after 0 iterations at t[s]:   9024.98
ElecMinimize: 	Step increased F by 1.787885e-08, reducing alpha to 6.659731e-04.
	Linear fluid (dielectric constant: 78.4, screening length: 5.74355 Bohr) occupying 0.757465 of unit cell:	Completed after 0 iterations at t[s]:   9059.15
ElecMinimize: 	Step increased F by 1.765989e-08, reducing alpha to 6.659731e-05.
ElecMinimize: 	Step failed to reduce F after 3 attempts. Quitting step.
ElecMinimize: 	Undoing step.
	Linear fluid (dielectric constant: 78.4, screening length: 5.74355 Bohr) occupying 0.757465 of unit cell:	Completed after 0 iterations at t[s]:   9093.62
ElecMinimize: 	Step failed along negative gradient direction.
ElecMinimize: Probably at roundoff error limit. (Stopping)
Setting wave functions to eigenvectors of Hamiltonian

# Ionic positions in lattice coordinates:
ion V   0.083332210555556   0.166667776027779   0.500000008835160 1
ion V   0.333332210555556   0.166667776027779   0.500000008835160 1
ion V   0.583332210555556   0.166667776027779   0.500000008835160 1
ion V   0.833332210555556   0.166667776027779   0.500000008835160 1
ion V   0.083332210555556   0.416667776027779   0.500000008835160 1
ion V   0.333332210555556   0.416667776027779   0.500000008835160 1
ion V   0.583332210555556   0.416667776027779   0.500000008835160 1
ion V   0.833332210555556   0.416667776027779   0.500000008835160 1
ion V   0.083332210555556   0.666667776027778   0.500000008835160 1
ion V   0.333332210555556   0.666667776027778   0.500000008835160 1
ion V   0.583332210555556   0.666667776027778   0.500000008835160 1
ion V   0.833332210555556   0.666667776027778   0.500000008835160 1
ion V   0.083332210555556   0.916667776027778   0.500000008835160 1
ion V   0.333332210555556   0.916667776027778   0.500000008835160 1
ion V   0.583332210555556   0.916667776027778   0.500000008835160 1
ion V   0.833332210555556   0.916667776027778   0.500000008835160 1
ion S  -0.000001122777777   0.000001109361112   0.417322835368676 1
ion S  -0.000001122777777   0.000001109361112   0.582677182301644 1
ion S   0.249998877222223   0.000001109361112   0.417322835368676 1
ion S   0.249998877222223   0.000001109361112   0.582677182301644 1
ion S   0.499998877222223   0.000001109361112   0.417322835368676 1
ion S   0.499998877222223   0.000001109361112   0.582677182301644 1
ion S   0.749998877222223   0.000001109361112   0.417322835368676 1
ion S   0.749998877222223   0.000001109361112   0.582677182301644 1
ion S   0.999998877222223   0.250001109361112   0.417322835368676 1
ion S   0.999998877222223   0.250001109361112   0.582677182301644 1
ion S   0.249998877222223   0.250001109361112   0.417322835368676 1
ion S   0.249998877222223   0.250001109361112   0.582677182301644 1
ion S   0.499998877222223   0.250001109361112   0.417322835368676 1
ion S   0.499998877222223   0.250001109361112   0.582677182301644 1
ion S   0.749998877222223   0.250001109361112   0.417322835368676 1
ion S   0.749998877222223   0.250001109361112   0.582677182301644 1
ion S   0.999998877222223   0.500001109361112   0.417322835368676 1
ion S   0.999998877222223   0.500001109361112   0.582677182301644 1
ion S   0.249998877222223   0.500001109361112   0.417322835368676 1
ion S   0.249998877222223   0.500001109361112   0.582677182301644 1
ion S   0.499998877222223   0.500001109361112   0.417322835368676 1
ion S   0.499998877222223   0.500001109361112   0.582677182301644 1
ion S   0.749998877222223   0.500001109361112   0.417322835368676 1
ion S   0.749998877222223   0.500001109361112   0.582677182301644 1
ion S   0.999998877222223   0.750001109361112   0.417322835368676 1
ion S   0.999998877222223   0.750001109361112   0.582677182301644 1
ion S   0.249998877222223   0.750001109361112   0.417322835368676 1
ion S   0.249998877222223   0.750001109361112   0.582677182301644 1
ion S   0.499998877222223   0.750001109361112   0.417322835368676 1
ion S   0.499998877222223   0.750001109361112   0.582677182301644 1
ion S   0.749998877222223   0.750001109361112   0.417322835368676 1
ion S   0.749998877222223   0.750001109361112   0.582677182301644 1


# Forces in Lattice coordinates:
force V  -0.000000000000000  -0.000000000000000   0.000000000000000 1
force V   0.000000000000000  -0.000000000000000  -0.000000000000000 1
force V   0.000000000000000  -0.000000000000000   0.000000000000000 1
force V   0.000000000000000  -0.000000000000000   0.000000000000000 1
force V   0.000000000000000  -0.000000000000000   0.000000000000000 1
force V   0.000000000000000  -0.000000000000000   0.000000000000000 1
force V  -0.000000000000000  -0.000000000000000  -0.000000000000000 1
force V  -0.000000000000000  -0.000000000000000   0.000000000000000 1
force V  -0.000000000000000  -0.000000000000000   0.000000000000000 1
force V  -0.000000000000000  -0.000000000000000  -0.000000000000000 1
force V   0.000000000000000  -0.000000000000000   0.000000000000000 1
force V   0.000000000000000  -0.000000000000000   0.000000000000000 1
force V   0.000000000000000  -0.000000000000000   0.000000000000000 1
force V   0.000000000000000  -0.000000000000000  -0.000000000000000 1
force V  -0.000000000000000  -0.000000000000000  -0.000000000000000 1
force V  -0.000000000000000  -0.000000000000000   0.000000000000000 1
force S   0.000000000000000  -0.000000000000000   0.000049759922649 1
force S   0.000000000000000  -0.000000000000000  -0.000049759922650 1
force S  -0.000000000000000  -0.000000000000000   0.000049759922648 1
force S   0.000000000000000   0.000000000000000  -0.000049759922649 1
force S  -0.000000000000000  -0.000000000000000   0.000049759922534 1
force S   0.000000000000000  -0.000000000000000  -0.000049759922535 1
force S  -0.000000000000000  -0.000000000000000   0.000049759922875 1
force S   0.000000000000000  -0.000000000000000  -0.000049759922649 1
force S   0.000000000000000  -0.000000000000000   0.000049759922762 1
force S   0.000000000000000   0.000000000000000  -0.000049759922649 1
force S  -0.000000000000000   0.000000000000000   0.000049759922761 1
force S   0.000000000000000  -0.000000000000000  -0.000049759922650 1
force S  -0.000000000000000  -0.000000000000000   0.000049759922761 1
force S   0.000000000000000  -0.000000000000000  -0.000049759922649 1
force S  -0.000000000000000  -0.000000000000000   0.000049759922648 1
force S   0.000000000000000   0.000000000000000  -0.000049759922649 1
force S  -0.000000000000000  -0.000000000000000   0.000049759922535 1
force S  -0.000000000000000   0.000000000000000  -0.000049759922649 1
force S  -0.000000000000000  -0.000000000000000   0.000049759922647 1
force S   0.000000000000000   0.000000000000000  -0.000049759922650 1
force S   0.000000000000000   0.000000000000000   0.000049759922648 1
force S   0.000000000000000  -0.000000000000000  -0.000049759922422 1
force S  -0.000000000000000   0.000000000000000   0.000049759922648 1
force S   0.000000000000000   0.000000000000000  -0.000049759922650 1
force S  -0.000000000000000  -0.000000000000000   0.000049759922649 1
force S   0.000000000000000   0.000000000000000  -0.000049759922762 1
force S  -0.000000000000000  -0.000000000000000   0.000049759922648 1
force S   0.000000000000000   0.000000000000000  -0.000049759922649 1
force S  -0.000000000000000   0.000000000000000   0.000049759922762 1
force S   0.000000000000000  -0.000000000000000  -0.000049759922650 1
force S  -0.000000000000000   0.000000000000000   0.000049759922647 1
force S   0.000000000000000  -0.000000000000000  -0.000049759922535 1

# Energy components:
   A_diel =        0.0139384354101473
   Eewald =     8150.9803012085976661
       EH =     9377.3079870541059790
     Eloc =   -19280.0685583659469557
      Enl =       79.6924584233856876
      Exc =     -292.1081207492171643
 Exc_core =       69.5498433525552002
       KE =      416.5382986674380845
-------------------------------------
     Etot =    -1478.0938519736716898
       TS =        0.1033466290619430
-------------------------------------
        F =    -1478.1971986027335788

IonicMinimize: Iter:   3  F: -1478.197198602733579  |grad|_K:  6.904e-07  alpha:  1.000e+00  linmin:  1.000e+00  t[s]:   9129.67
IonicMinimize: Converged (|grad|_K<1.000000e-04).

#--- Lowdin population analysis ---
# oxidation-state V +0.621 +0.621 +0.621 +0.621 +0.621 +0.621 +0.621 +0.621 +0.621 +0.621 +0.621 +0.621 +0.621 +0.621 +0.621 +0.621
# magnetic-moments V -0.002 -0.002 -0.002 -0.002 -0.002 -0.002 -0.002 -0.002 -0.002 -0.002 -0.002 -0.002 -0.002 -0.002 -0.002 -0.002
# oxidation-state S -0.206 -0.206 -0.206 -0.206 -0.206 -0.206 -0.206 -0.206 -0.206 -0.206 -0.206 -0.206 -0.206 -0.206 -0.206 -0.206 -0.206 -0.206 -0.206 -0.206 -0.206 -0.206 -0.206 -0.206 -0.206 -0.206 -0.206 -0.206 -0.206 -0.206 -0.206 -0.206
# magnetic-moments S +0.000 +0.000 +0.000 +0.000 +0.000 +0.000 +0.000 +0.000 +0.000 +0.000 +0.000 +0.000 +0.000 +0.000 +0.000 +0.000 +0.000 +0.000 +0.000 +0.000 +0.000 +0.000 +0.000 +0.000 +0.000 +0.000 +0.000 +0.000 +0.000 +0.000 +0.000 +0.000


Dumping 'NbTe2.fillings' ... done
Dumping 'NbTe2.wfns' ... done
Dumping 'NbTe2.fluidState' ... done
Dumping 'NbTe2.ionpos' ... done
Dumping 'NbTe2.eigenvals' ... done
End date and time: Sat Jan 30 01:36:21 2021  (Duration: 0-2:32:15.57)
Done!
