
*************** JDFTx 1.5.0  ***************

Start date and time: Fri Jan 22 16:21:36 2021
Executable jdftx_gpu with command-line: -i Charged.in -o Charged.out
Running on hosts (process indices):  amax (0-4)
Divided in process groups (process indices):  0 (0)  1 (1)  2 (2)  3 (3)  4 (4)
gpuInit: Found compatible cuda device 0 'Tesla K80'
gpuInit: Found compatible cuda device 1 'Tesla K80'
gpuInit: Found compatible cuda device 2 'Tesla K80'
gpuInit: Found compatible cuda device 3 'Tesla K80'
gpuInit: Found compatible cuda device 4 'Tesla K80'
gpuInit: Selected device 0
Resource initialization completed at t[s]:      3.08
Run totals: 5 processes, 24 threads, 5 GPUs


Input parsed successfully to the following command list (including defaults):

basis kpoint-dependent
cache-projectors no
coords-type Lattice
core-overlap-check none
coulomb-interaction Slab 001
coulomb-truncation-embed 0.5 0.5 0.5
davidson-band-ratio 1.1
dump End State
dump-name NbTe2.$VAR
elec-cutoff 20
elec-eigen-algo Davidson
elec-ex-corr gga-PBE
elec-initial-magnetization 50.000000 no
elec-smearing Gauss 0.0073499
electronic-minimize  \
	dirUpdateScheme      FletcherReeves \
	linminMethod         DirUpdateRecommended \
	nIterations          100 \
	history              15 \
	knormThreshold       0 \
	energyDiffThreshold  1e-08 \
	nEnergyDiff          2 \
	alphaTstart          1 \
	alphaTmin            1e-10 \
	updateTestStepSize   yes \
	alphaTreduceFactor   0.1 \
	alphaTincreaseFactor 3 \
	nAlphaAdjustMax      3 \
	wolfeEnergy          0.0001 \
	wolfeGradient        0.9 \
	fdTest               no
exchange-regularization WignerSeitzTruncated
fluid LinearPCM 298.000000 1.013250
fluid-anion F- 1 MeanFieldLJ \
	epsBulk 1 \
	pMol 0 \
	epsInf 1 \
	Pvap 0 \
	sigmaBulk 0 \
	Rvdw 2.24877 \
	Res 0 \
	tauNuc 343133
fluid-cation Na+ 1 MeanFieldLJ \
	epsBulk 1 \
	pMol 0 \
	epsInf 1 \
	Pvap 0 \
	sigmaBulk 0 \
	Rvdw 2.19208 \
	Res 0 \
	tauNuc 343133
fluid-ex-corr lda-TF lda-PZ
fluid-gummel-loop 10 1.000000e-05
fluid-minimize  \
	dirUpdateScheme      PolakRibiere \
	linminMethod         DirUpdateRecommended \
	nIterations          400 \
	history              15 \
	knormThreshold       1e-11 \
	energyDiffThreshold  0 \
	nEnergyDiff          2 \
	alphaTstart          1 \
	alphaTmin            1e-10 \
	updateTestStepSize   yes \
	alphaTreduceFactor   0.1 \
	alphaTincreaseFactor 3 \
	nAlphaAdjustMax      6 \
	wolfeEnergy          0.0001 \
	wolfeGradient        0.9 \
	fdTest               no
fluid-solvent H2O 55.338 ScalarEOS \
	epsBulk 78.4 \
	pMol 0.92466 \
	epsInf 1.77 \
	Pvap 1.06736e-10 \
	sigmaBulk 4.62e-05 \
	Rvdw 2.61727 \
	Res 1.42 \
	tauNuc 343133 \
	poleEl 15 7 1
forces-output-coords Positions
initial-state NbTe2.$VAR
ion Ti   0.168712256391400   0.084318357052259   0.566364464145807 1
ion Ti   0.083397787081648   0.166718971225631   0.440828600300404 1
ion Ti   0.417666404791377   0.079999546369364   0.567808549074034 1
ion Ti   0.336828325676669   0.168338999219653   0.440123922106270 1
ion Ti   0.662437917450467   0.080043227221788   0.567859190526905 1
ion Ti   0.586230580271914   0.172322901726624   0.437902844110343 1
ion Ti   0.915737884101647   0.084334999877165   0.566405596206005 1
ion Ti   0.831608395482280   0.168342917833751   0.440184007594851 1
ion Ti   0.171338521362965   0.342489130978655   0.563759727541026 1
ion Ti   0.077424299324130   0.413595651904758   0.434310531977658 1
ion Ti   0.417675626948540   0.337521602640790   0.567794170325430 1
ion Ti   0.336315121452614   0.413540606091629   0.434292173450147 1
ion Ti   0.666660797730138   0.333281832394849   0.571413260277716 1
ion Ti   0.586266198806375   0.413761066441827   0.437898317546934 1
ion Ti   0.919977369636113   0.337562207553695   0.567777335975521 1
ion Ti   0.827634191174459   0.413801193612260   0.437928401858631 1
ion Ti   0.175372879379195   0.587619413959734   0.558934840863370 1
ion Ti   0.077410172657791   0.663771693660118   0.434308497414793 1
ion Ti   0.412398241744969   0.587593690388130   0.558933434952582 1
ion Ti   0.333384770952559   0.666627092618656   0.425927864731789 1
ion Ti   0.662434738251040   0.582302289401199   0.567846434450031 1
ion Ti   0.586480220147656   0.663714964968228   0.434333265411873 1
ion Ti   0.920031279588006   0.582338983096464   0.567826983955566 1
ion Ti   0.831633392006517   0.663174103535679   0.440225078634692 1
ion Ti   0.171352447326511   0.828707077464765   0.563780844531133 1
ion Ti   0.083392584336307   0.916589873883754   0.440856613243259 1
ion Ti   0.412390995155560   0.824640253776619   0.558946464197406 1
ion Ti   0.336309843899802   0.922617773959017   0.434313809721787 1
ion Ti   0.657461489463770   0.828687956001076   0.563810010917158 1
ion Ti   0.586475995299981   0.922627180429810   0.434321635921052 1
ion Ti   0.915735912008440   0.831340359683418   0.566404989280230 1
ion Ti   0.833248394493697   0.916594297488729   0.440885439062124 1
ion C   0.000039378661610  -0.000017618862048   0.504681508184009 1
ion C   0.251569045986651  -0.000236186520481   0.503105958753555 1
ion C   0.501274397351957   0.002419559430696   0.499611360018273 1
ion C   0.748296932693943  -0.000221842334224   0.503180516143457 1
ion C   0.000245029813501   0.251691056366736   0.503109710817595 1
ion C   0.251566041195139   0.251666847933288   0.503086048208763 1
ion C   0.500965043196250   0.250403784995937   0.506704324856862 1
ion C   0.749545566018654   0.250438435761974   0.506732655426806 1
ion C  -0.002404868214947   0.498749986129893   0.499579203232797 1
ion C   0.250199648165648   0.500210471192799   0.489977978400125 1
ion C   0.501284477110889   0.498698689288996   0.499595836046547 1
ion C   0.749569781416389   0.499026597909750   0.506767491310815 1
ion C   0.000255409322861   0.748464123813912   0.503148003698029 1
ion C   0.250172870597067   0.749833610872747   0.489986654715801 1
ion C   0.499813184187788   0.749839601244295   0.489984064655142 1
ion C   0.748320868576391   0.748460700125891   0.503176438149268 1
ion H   0.333390303210213   0.666605849467142   0.612459846273762 1
ion-species GBRV/$ID_pbe.uspp
ion-width Ecut
ionic-minimize  \
	dirUpdateScheme      L-BFGS \
	linminMethod         DirUpdateRecommended \
	nIterations          500 \
	history              15 \
	knormThreshold       0.0001 \
	energyDiffThreshold  1e-06 \
	nEnergyDiff          2 \
	alphaTstart          1 \
	alphaTmin            1e-10 \
	updateTestStepSize   yes \
	alphaTreduceFactor   0.1 \
	alphaTincreaseFactor 3 \
	nAlphaAdjustMax      3 \
	wolfeEnergy          0.0001 \
	wolfeGradient        0.9 \
	fdTest               no
kpoint   0.000000000000   0.000000000000   0.000000000000  1.00000000000000
kpoint-folding 3 3 1 
latt-move-scale 1 1 1
latt-scale 1.88973 1.88973 1.88973 
lattice Triclinic 12.1569 12.1569 17.2781 90 90 120
lattice-minimize  \
	dirUpdateScheme      L-BFGS \
	linminMethod         DirUpdateRecommended \
	nIterations          0 \
	history              15 \
	knormThreshold       0 \
	energyDiffThreshold  1e-06 \
	nEnergyDiff          2 \
	alphaTstart          1 \
	alphaTmin            1e-10 \
	updateTestStepSize   yes \
	alphaTreduceFactor   0.1 \
	alphaTincreaseFactor 3 \
	nAlphaAdjustMax      3 \
	wolfeEnergy          0.0001 \
	wolfeGradient        0.9 \
	fdTest               no
lcao-params -1 1e-06 0.0073499
pcm-variant CANDLE
spintype z-spin
subspace-rotation-factor 1 yes
symmetries automatic
symmetry-threshold 0.0001
target-mu -0.171252 no




---------- Setting up symmetries ----------

Found 24 point-group symmetries of the bravais lattice
Found 1 space-group symmetries with basis
Applied RMS atom displacement 0 bohrs to make symmetries exact.

---------- Initializing the Grid ----------
R = 
[    22.9732   -11.4866          0  ]
[          0    19.8954          0  ]
[          0          0    32.6508  ]
unit cell volume = 14923.4
G =
[   0.273501   0.157906         -0  ]
[          0   0.315811          0  ]
[          0         -0   0.192436  ]
Minimum fftbox size, Smin = [  96  96  132  ]
Chosen fftbox size, S = [  96  96  140  ]

---------- Exchange Correlation functional ----------
Initalized PBE GGA exchange.
Initalized PBE GGA correlation.

---------- Setting up pseudopotentials ----------
Width of ionic core gaussian charges (only for fluid interactions / plotting) set to 0.397384

Reading pseudopotential file '/home/guoxy/vasp/jdftx-1.5.0/build/pseudopotentials/GBRV/ti_pbe.uspp':
  Title: Ti.  Created by USPP 7.3.6 on 31-3-15
  Reference state energy: -59.020943.  12 valence electrons in orbitals:
    |300>  occupation: 2  eigenvalue: -2.777623
    |310>  occupation: 6  eigenvalue: -1.894596
    |400>  occupation: 2  eigenvalue: -0.438610
    |320>  occupation: 1  eigenvalue: -0.583119
  lMax: 2  lLocal: 3  QijEcut: 6
  6 projectors sampled on a log grid with 597 points:
    l: 0  eig: -2.777624  rCut: 1.8
    l: 0  eig: -0.438611  rCut: 1.8
    l: 1  eig: -1.894596  rCut: 1.8
    l: 1  eig: 0.500000  rCut: 1.8
    l: 2  eig: -0.583118  rCut: 1.8
    l: 2  eig: 0.150000  rCut: 1.8
  Partial core density with radius 0.8
  Transforming core density to a uniform radial grid of dG=0.02 with 1481 points.
  Transforming local potential to a uniform radial grid of dG=0.02 with 1481 points.
  Transforming nonlocal projectors to a uniform radial grid of dG=0.02 with 432 points.
  Transforming density augmentations to a uniform radial grid of dG=0.02 with 1481 points.
  Transforming atomic orbitals to a uniform radial grid of dG=0.02 with 432 points.
  Core radius for overlap checks: 1.80 bohrs.

Reading pseudopotential file '/home/guoxy/vasp/jdftx-1.5.0/build/pseudopotentials/GBRV/c_pbe.uspp':
  Title: C.  Created by USPP 7.3.6 on 3-2-2014
  Reference state energy: -5.406344.  4 valence electrons in orbitals:
    |200>  occupation: 2  eigenvalue: -0.504890
    |210>  occupation: 2  eigenvalue: -0.194356
  lMax: 1  lLocal: 2  QijEcut: 5
  4 projectors sampled on a log grid with 503 points:
    l: 0  eig: -0.504890  rCut: 1.3
    l: 0  eig: 0.000000  rCut: 1.3
    l: 1  eig: -0.194357  rCut: 1.3
    l: 1  eig: 0.000000  rCut: 1.3
  Partial core density with radius 1.1
  Transforming core density to a uniform radial grid of dG=0.02 with 1481 points.
  Transforming local potential to a uniform radial grid of dG=0.02 with 1481 points.
  Transforming nonlocal projectors to a uniform radial grid of dG=0.02 with 432 points.
  Transforming density augmentations to a uniform radial grid of dG=0.02 with 1481 points.
  Transforming atomic orbitals to a uniform radial grid of dG=0.02 with 432 points.
  Core radius for overlap checks: 1.30 bohrs.

Reading pseudopotential file '/home/guoxy/vasp/jdftx-1.5.0/build/pseudopotentials/GBRV/h_pbe.uspp':
  Title: H.  Created by USPP 7.3.6 on 2-4-15
  Reference state energy: -0.458849.  1 valence electrons in orbitals:
    |100>  occupation: 1  eigenvalue: -0.238595
  lMax: 0  lLocal: 1  QijEcut: 6
  2 projectors sampled on a log grid with 395 points:
    l: 0  eig: -0.238595  rCut: 1.2
    l: 0  eig: 1.000000  rCut: 1.2
  Transforming local potential to a uniform radial grid of dG=0.02 with 1481 points.
  Transforming nonlocal projectors to a uniform radial grid of dG=0.02 with 432 points.
  Transforming density augmentations to a uniform radial grid of dG=0.02 with 1481 points.
  Transforming atomic orbitals to a uniform radial grid of dG=0.02 with 432 points.
  Core radius for overlap checks: 1.20 bohrs.

Initialized 3 species with 49 total atoms.

Folded 1 k-points by 3x3x1 to 9 k-points.

---------- Setting up k-points, bands, fillings ----------
Adding inversion symmetry to k-mesh for non-inversion-symmetric unit cell.
Reduced to 5 k-points under symmetry. 
Computing the number of bands and number of electrons
Calculating initial fillings.
nElectrons: 449.000000   nBands: 385   nStates: 10

----- Setting up reduced wavefunction bases (one per k-point) -----
average nbasis = 63756.556 , ideal nbasis = 63753.870

---------- Setting up coulomb interaction ----------
Fluid mode embedding: using embedded box, but periodic Coulomb kernel.
(Fluid response is responsible for (approximate) separation between periodic images.)
Setting up double-sized grid for truncated Coulomb potentials:
R = 
[    22.9732   -11.4866          0  ]
[          0    19.8954          0  ]
[          0          0    65.3016  ]
unit cell volume = 29846.8
G =
[   0.273501   0.157906         -0  ]
[          0   0.315811          0  ]
[          0         -0   0.096218  ]
Chosen fftbox size, S = [  96  96  280  ]
Integer grid location selected as the embedding center:
   Grid: [  48  48  70  ]
   Lattice: [  0.5  0.5  0.5  ]
   Cartesian: [  5.7433  9.94769  16.3254  ]
Constructing Wigner-Seitz cell: 8 faces (6 quadrilaterals, 2 hexagons)
Range-separation parameter for embedded mesh potentials due to point charges: 0.617142 bohrs.

Initializing van der Waals corrections
	NOTE: vdW corrections apply only for interactions with fluid.
	Ti:  C6:  187.33 Eh-a0^6  R0: 2.952 a0
	 C:  C6:   30.35 Eh-a0^6  R0: 2.744 a0
	 H:  C6:    2.43 Eh-a0^6  R0: 1.892 a0

---------- Setting up ewald sum ----------
Optimum gaussian width for ewald sums = 6.469091 bohr.
Real space sum over 605 unit cells with max indices [  5  5  2  ]
Reciprocal space sum over 7875 terms with max indices [  7  7  17  ]

---------- Allocating electronic variables ----------
Initializing wave functions:  linear combination of atomic orbitals
Ti pseudo-atom occupations:   s ( 2 0 )  p ( 6 )  d ( 4 )
C pseudo-atom occupations:   s ( 2 )  p ( 2 )
H pseudo-atom occupations:   s ( 1 )
	FillingsUpdate:  mu: -0.171251800  nElectrons: 449.000000  magneticMoment: [ Abs: 59.90460  Tot: +59.89567 ]
LCAOMinimize: Iter:   0  G: -1729.2149341419074062  |grad|_K:  5.260e-02  alpha:  1.000e+00
LCAOMinimize: 	Step increased G by 3.314317e+02, reducing alpha to 4.367068e-02.
LCAOMinimize: 	Step increased G by 4.842409e+01, reducing alpha to 4.367068e-03.
	FillingsUpdate:  mu: -0.171251800  nElectrons: 449.000000  magneticMoment: [ Abs: 60.73924  Tot: +60.72641 ]
LCAOMinimize: Iter:   1  G: -1747.0617598824067045  |grad|_K:  4.551e-02  alpha:  4.367e-03  linmin: -3.151e-01  cgtest:  8.698e-01  t[s]:    124.67
LCAOMinimize: Encountered beta<0, resetting CG.
LCAOMinimize: 	Predicted alpha/alphaT>3.000000, increasing alphaT to 1.310121e-02.
	FillingsUpdate:  mu: -0.171251800  nElectrons: 449.000000  magneticMoment: [ Abs: 59.64573  Tot: +59.62892 ]
LCAOMinimize: Iter:   2  G: -1769.1688989135086558  |grad|_K:  3.703e-02  alpha:  2.225e-02  linmin:  2.158e-01  cgtest: -6.023e-01  t[s]:    163.11
LCAOMinimize: 	Bad step direction: g.d > 0.
LCAOMinimize: 	Undoing step.
LCAOMinimize: 	Step failed: resetting search direction.
	FillingsUpdate:  mu: -0.171251800  nElectrons: 449.000000  magneticMoment: [ Abs: 59.64573  Tot: +59.62892 ]
LCAOMinimize: Iter:   3  G: -1769.1688989135086558  |grad|_K:  3.703e-02  alpha:  0.000e+00
	FillingsUpdate:  mu: -0.171251800  nElectrons: 449.000000  magneticMoment: [ Abs: 58.64965  Tot: +58.63331 ]
LCAOMinimize: Iter:   4  G: -1783.9147172253260578  |grad|_K:  1.484e-02  alpha:  1.427e-02  linmin:  2.333e-02  cgtest:  1.446e-04  t[s]:    210.42
LCAOMinimize: 	Predicted alpha/alphaT>3.000000, increasing alphaT to 4.282079e-02.
LCAOMinimize: 	Predicted alpha/alphaT>3.000000, increasing alphaT to 1.284624e-01.
LCAOMinimize: 	Wrong curvature in test step, increasing alphaT to 3.853871e-01.
	FillingsUpdate:  mu: -0.171251800  nElectrons: 449.000000  magneticMoment: [ Abs: 36.28955  Tot: +35.86396 ]
LCAOMinimize: Iter:   5  G: -1827.5539000170549571  |grad|_K:  1.806e-02  alpha: -1.067e+00  linmin: -1.658e-01  cgtest:  2.833e-01  t[s]:    254.80
LCAOMinimize: 	Step increased G by 1.189307e+01, reducing alpha to 4.471014e-02.
	FillingsUpdate:  mu: -0.171251800  nElectrons: 449.000000  magneticMoment: [ Abs: 29.56907  Tot: +27.76719 ]
LCAOMinimize: Iter:   6  G: -1859.8882955756253068  |grad|_K:  1.124e-02  alpha:  4.471e-02  linmin: -2.261e-01  cgtest:  3.924e-02  t[s]:    299.27
	FillingsUpdate:  mu: -0.171251800  nElectrons: 449.000000  magneticMoment: [ Abs: 24.72097  Tot: +23.79598 ]
LCAOMinimize: Iter:   7  G: -1873.8394162027634593  |grad|_K:  5.479e-03  alpha:  7.387e-02  linmin: -1.207e-02  cgtest: -5.900e-01  t[s]:    327.07
	FillingsUpdate:  mu: -0.171251800  nElectrons: 449.000000  magneticMoment: [ Abs: 22.98816  Tot: +22.16179 ]
LCAOMinimize: Iter:   8  G: -1874.3887122663204536  |grad|_K:  2.555e-03  alpha:  2.815e-02  linmin:  1.650e-02  cgtest:  9.024e-01  t[s]:    354.59
LCAOMinimize: Encountered beta<0, resetting CG.
	FillingsUpdate:  mu: -0.171251800  nElectrons: 449.000000  magneticMoment: [ Abs: 22.63492  Tot: +21.78630 ]
LCAOMinimize: Iter:   9  G: -1874.5980992518136645  |grad|_K:  1.140e-03  alpha:  4.337e-02  linmin:  2.266e-02  cgtest: -6.974e-02  t[s]:    383.73
LCAOMinimize: 	Predicted alpha/alphaT>3.000000, increasing alphaT to 1.301051e-01.
	FillingsUpdate:  mu: -0.171251800  nElectrons: 449.000000  magneticMoment: [ Abs: 20.44035  Tot: +19.49030 ]
LCAOMinimize: Iter:  10  G: -1874.7648530770095476  |grad|_K:  1.505e-03  alpha:  2.025e-01  linmin:  6.214e-02  cgtest: -1.412e-01  t[s]:    419.71
	FillingsUpdate:  mu: -0.171251800  nElectrons: 449.000000  magneticMoment: [ Abs: 18.75744  Tot: +17.74224 ]
LCAOMinimize: Iter:  11  G: -1874.8424740322470825  |grad|_K:  1.160e-03  alpha:  5.409e-02  linmin:  3.022e-03  cgtest:  8.239e-01  t[s]:    449.81
LCAOMinimize: Encountered beta<0, resetting CG.
	FillingsUpdate:  mu: -0.171251800  nElectrons: 449.000000  magneticMoment: [ Abs: 18.19206  Tot: +17.16657 ]
LCAOMinimize: Iter:  12  G: -1874.9046977151638202  |grad|_K:  4.682e-04  alpha:  6.145e-02  linmin: -6.417e-02  cgtest:  2.019e-01  t[s]:    475.21
	FillingsUpdate:  mu: -0.171251800  nElectrons: 449.000000  magneticMoment: [ Abs: 17.59990  Tot: +16.56841 ]
LCAOMinimize: Iter:  13  G: -1874.9156559486102651  |grad|_K:  3.549e-04  alpha:  6.391e-02  linmin: -1.088e-01  cgtest:  3.012e-01  t[s]:    505.18
	FillingsUpdate:  mu: -0.171251800  nElectrons: 449.000000  magneticMoment: [ Abs: 16.60756  Tot: +15.56886 ]
LCAOMinimize: Iter:  14  G: -1874.9265726850499050  |grad|_K:  2.321e-04  alpha:  8.844e-02  linmin: -1.817e-01  cgtest:  4.697e-01  t[s]:    531.16
	FillingsUpdate:  mu: -0.171251800  nElectrons: 449.000000  magneticMoment: [ Abs: 15.10398  Tot: +14.06720 ]
LCAOMinimize: Iter:  15  G: -1874.9351583611276055  |grad|_K:  3.620e-04  alpha:  1.749e-01  linmin: -2.051e-02  cgtest: -3.858e-02  t[s]:    561.36
	FillingsUpdate:  mu: -0.171251800  nElectrons: 449.000000  magneticMoment: [ Abs: 10.86746  Tot: +9.85528 ]
LCAOMinimize: Iter:  16  G: -1874.9521944580028503  |grad|_K:  3.824e-04  alpha:  1.513e-01  linmin:  2.732e-02  cgtest: -2.492e-01  t[s]:    587.36
	FillingsUpdate:  mu: -0.171251800  nElectrons: 449.000000  magneticMoment: [ Abs: 1.47771  Tot: -1.24955 ]
LCAOMinimize: Iter:  17  G: -1874.9552396724716345  |grad|_K:  5.939e-04  alpha:  2.576e-01  linmin:  9.469e-02  cgtest: -1.658e-01  t[s]:    616.52
LCAOMinimize: 	Bad step direction: g.d > 0.
LCAOMinimize: 	Undoing step.
LCAOMinimize: 	Step failed: resetting search direction.
	FillingsUpdate:  mu: -0.171251800  nElectrons: 449.000000  magneticMoment: [ Abs: 1.47771  Tot: -1.24955 ]
LCAOMinimize: Iter:  18  G: -1874.9552396724716345  |grad|_K:  5.939e-04  alpha:  0.000e+00
	FillingsUpdate:  mu: -0.171251800  nElectrons: 449.000000  magneticMoment: [ Abs: 1.40717  Tot: -1.19026 ]
LCAOMinimize: Iter:  19  G: -1874.9783265795867919  |grad|_K:  4.839e-04  alpha:  7.527e-02  linmin:  9.934e-03  cgtest: -2.393e-02  t[s]:    664.06
	FillingsUpdate:  mu: -0.171251800  nElectrons: 449.000000  magneticMoment: [ Abs: 1.19549  Tot: -1.02553 ]
LCAOMinimize: Iter:  20  G: -1874.9952644223701554  |grad|_K:  5.181e-04  alpha:  1.349e-01  linmin:  1.378e-01  cgtest: -4.431e-01  t[s]:    690.60
	FillingsUpdate:  mu: -0.171251800  nElectrons: 449.000000  magneticMoment: [ Abs: 1.12835  Tot: -0.97065 ]
LCAOMinimize: Iter:  21  G: -1874.9970478820562221  |grad|_K:  4.748e-04  alpha:  1.990e-02  linmin:  5.102e-03  cgtest:  9.840e-01  t[s]:    715.15
LCAOMinimize: Encountered beta<0, resetting CG.
	FillingsUpdate:  mu: -0.171251800  nElectrons: 449.000000  magneticMoment: [ Abs: 1.09905  Tot: -0.94407 ]
LCAOMinimize: Iter:  22  G: -1875.0037989857537468  |grad|_K:  1.922e-04  alpha:  3.654e-02  linmin: -2.147e-01  cgtest:  5.583e-01  t[s]:    740.46
LCAOMinimize: Encountered beta<0, resetting CG.
	FillingsUpdate:  mu: -0.171251800  nElectrons: 449.000000  magneticMoment: [ Abs: 1.07403  Tot: -0.92327 ]
LCAOMinimize: Iter:  23  G: -1875.0046236211908308  |grad|_K:  1.322e-04  alpha:  3.248e-02  linmin: -3.260e-01  cgtest:  9.388e-01  t[s]:    769.07
LCAOMinimize: Encountered beta<0, resetting CG.
	FillingsUpdate:  mu: -0.171251800  nElectrons: 449.000000  magneticMoment: [ Abs: 1.05937  Tot: -0.91105 ]
LCAOMinimize: Iter:  24  G: -1875.0047393633608408  |grad|_K:  1.161e-04  alpha:  1.971e-02  linmin: -3.095e-01  cgtest:  9.929e-01  t[s]:    797.33
LCAOMinimize: Encountered beta<0, resetting CG.
	FillingsUpdate:  mu: -0.171251800  nElectrons: 449.000000  magneticMoment: [ Abs: 1.05174  Tot: -0.90470 ]
LCAOMinimize: Iter:  25  G: -1875.0047577705543063  |grad|_K:  1.099e-04  alpha:  1.045e-02  linmin: -3.001e-01  cgtest:  9.990e-01  t[s]:    824.93
LCAOMinimize: Encountered beta<0, resetting CG.
	FillingsUpdate:  mu: -0.171251800  nElectrons: 449.000000  magneticMoment: [ Abs: 1.04794  Tot: -0.90154 ]
LCAOMinimize: Iter:  26  G: -1875.0047597275015505  |grad|_K:  1.072e-04  alpha:  5.251e-03  linmin: -2.960e-01  cgtest:  9.999e-01  t[s]:    853.65
LCAOMinimize: Encountered beta<0, resetting CG.
LCAOMinimize: 	Step increased G by 5.024119e-07, reducing alpha to 2.575385e-04.
LCAOMinimize: 	Step increased G by 1.956437e-08, reducing alpha to 2.575385e-05.
LCAOMinimize: 	Step increased G by 1.673243e-09, reducing alpha to 2.575385e-06.
LCAOMinimize: 	Step failed to reduce G after 3 attempts. Quitting step.
LCAOMinimize: 	Undoing step.
LCAOMinimize: 	Step failed along negative gradient direction.
LCAOMinimize: Probably at roundoff error limit. (Stopping)
----- createFluidSolver() ----- (Fluid-side solver setup)
   Initializing fluid molecule 'H2O'
     Initializing site 'O'
       Electron density: proportional to exp(-r/0.36935)*erfc((r-0.51523)/0.36823) with norm 6.826
       Charge density: gaussian nuclear width 0.478731 with net site charge 0.826
       Polarizability: cuspless exponential with width 0.32 and norm 3.73
       Hard sphere radius: 2.57003 bohrs
       Positions in reference frame:
         [ +0.000000 +0.000000 +0.000000 ]
     Initializing site 'H'
       Electron density: proportional to exp(-r/0.34641)*erfc((r-0)/0.390882) with norm 0.587
       Charge density: gaussian nuclear width 0.377945 with net site charge -0.413
       Polarizability: cuspless exponential with width 0.39 and norm 3.3
       Positions in reference frame:
         [ +0.000000 -1.441945 +1.122523 ]
         [ +0.000000 +1.441945 +1.122523 ]
     Net charge: 0   dipole magnitude: 0.927204
     Initializing spherical shell mfKernel with radius 2.61727 Bohr
     deltaS corrections:
       site 'O': -7.54299
       site 'H': -6.83917
   Initializing fluid molecule 'Na+'
     Initializing site 'Na'
       Electron density: proportional to exp(-r/0.19682)*erfc((r-0.71491)/0.41314) with norm 8.1383
       Charge density: gaussian nuclear width 0.365347 with net site charge -1
       Hard sphere radius: 1.86327 bohrs
       Positions in reference frame:
         [ +0.000000 +0.000000 +0.000000 ]
     Net charge: -1   dipole magnitude: 0
     Initializing gaussian mfKernel with width: 1.55004 Bohr
     deltaS corrections:
       site 'Na': -22.3555
   Initializing fluid molecule 'F-'
     Initializing site 'F'
       Electron density: proportional to exp(-r/0.38886)*erfc((r-0)/0.438782) with norm 8
       Charge density: gaussian nuclear width 0.374796 with net site charge 1
       Hard sphere radius: 2.39995 bohrs
       Positions in reference frame:
         [ +0.000000 +0.000000 +0.000000 ]
     Net charge: 1   dipole magnitude: 0
     Initializing gaussian mfKernel with width: 1.59012 Bohr
     deltaS corrections:
       site 'F': -9.04335

Correction to mu due to finite nuclear width = -0.0149262
   Cavity determined by nc: 0.00142 and sigma: 0.707107
   Nonlocal vdW cavity from gaussian model electron density with norm = 8 and sigma = 0.993594 bohr
   Charge asymmetry in cavity with sensitivity pCavity = 36.5 e-bohr/Eh
   Electrostatic cavity expanded by eta = 1.46 bohrs
   Weighted density cavitation model constrained by Nbulk: 0.0049383 bohr^-3, Pvap: 3.14029 kPa, Rvdw: 2.61727 bohr and sigmaBulk: 4.62e-05 Eh/bohr^2 at T: 298 K.
   Weighted density dispersion model using vdW pair potentials with single solvent site with sqrtC6eff: 0.77 SI.


---- Citations for features of the code used in this run ----

   Software package:
      R. Sundararaman, K. Letchworth-Weaver, K.A. Schwarz, D. Gunceler, Y. Ozhabes and T.A. Arias, 'JDFTx: software for joint density-functional theory', SoftwareX 6, 278 (2017)

   gga-PBE exchange-correlation functional:
      J.P. Perdew, K. Burke and M. Ernzerhof, Phys. Rev. Lett. 77, 3865 (1996)

   Pseudopotentials:
      KF Garrity, JW Bennett, KM Rabe and D Vanderbilt, Comput. Mater. Sci. 81, 446 (2014)

   Truncated Coulomb potentials:
      R. Sundararaman and T.A. Arias, Phys. Rev. B 87, 165122 (2013)

   Van der Waals correction pair-potentials:
      S. Grimme, J. Comput. Chem. 27, 1787 (2006)

   Charge-asymmetric nonlocally-determined local-electric (CANDLE) solvation model:
      R. Sundararaman and W.A. Goddard III, J. Chem. Phys. 142, 064107 (2015)

   Total energy minimization with Auxiliary Hamiltonian:
      C. Freysoldt, S. Boeck, and J. Neugebauer, Phys. Rev. B 79, 241103(R) (2009)

   Grand-canonical (fixed-potential) DFT:
      R. Sundararaman, W. A. Goddard III and T. A. Arias, J. Chem. Phys. 146, 114104 (2017)

This list may not be complete. Please suggest additional citations or
report any other bugs at https://github.com/shankar1729/jdftx/issues

Initialization completed successfully at t[s]:    942.26

Fluid solver invoked on fresh (partially random / LCAO) wavefunctions
Running a vacuum solve first:

-------- Initial electronic minimization -----------
	FillingsUpdate:  mu: +0.206636728  nElectrons: 449.000000  magneticMoment: [ Abs: 1.04793  Tot: -0.90153 ]
ElecMinimize: Iter:   0  G: -1875.025840799021807  |grad|_K:  1.953e-04  alpha:  1.000e+00
	FillingsUpdate:  mu: +0.041624199  nElectrons: 449.000000  magneticMoment: [ Abs: 0.80635  Tot: -0.69324 ]
	SubspaceRotationAdjust: set factor to 0.989
ElecMinimize: Iter:   1  G: -1878.292511434826110  |grad|_K:  1.142e-04  alpha:  3.551e-01  linmin:  1.305e-04  t[s]:   1000.33
	FillingsUpdate:  mu: +0.041502035  nElectrons: 449.000000  magneticMoment: [ Abs: 0.48710  Tot: -0.42762 ]
	SubspaceRotationAdjust: set factor to 0.751
ElecMinimize: Iter:   2  G: -1879.939689987830434  |grad|_K:  9.396e-05  alpha:  5.202e-01  linmin: -2.797e-04  t[s]:   1040.02
	FillingsUpdate:  mu: +0.030988153  nElectrons: 449.000000  magneticMoment: [ Abs: 0.37520  Tot: -0.33123 ]
	SubspaceRotationAdjust: set factor to 0.472
ElecMinimize: Iter:   3  G: -1880.233361257629667  |grad|_K:  1.074e-04  alpha:  1.456e-01  linmin:  1.124e-03  t[s]:   1076.44
	FillingsUpdate:  mu: +0.011852514  nElectrons: 449.000000  magneticMoment: [ Abs: 0.24983  Tot: -0.21549 ]
	SubspaceRotationAdjust: set factor to 0.305
ElecMinimize: Iter:   4  G: -1880.552420007604951  |grad|_K:  9.098e-05  alpha:  1.195e-01  linmin:  2.284e-05  t[s]:   1114.58
	FillingsUpdate:  mu: -0.008965730  nElectrons: 449.000000  magneticMoment: [ Abs: 0.17888  Tot: -0.10634 ]
	SubspaceRotationAdjust: set factor to 0.26
ElecMinimize: Iter:   5  G: -1880.897402820475463  |grad|_K:  5.160e-05  alpha:  1.679e-01  linmin: -4.422e-04  t[s]:   1155.79
	FillingsUpdate:  mu: -0.031798495  nElectrons: 449.000000  magneticMoment: [ Abs: 0.18635  Tot: -0.06382 ]
	SubspaceRotationAdjust: set factor to 0.212
ElecMinimize: Iter:   6  G: -1881.041943031119217  |grad|_K:  3.970e-05  alpha:  2.159e-01  linmin:  1.250e-04  t[s]:   1194.35
	FillingsUpdate:  mu: -0.053683607  nElectrons: 449.000000  magneticMoment: [ Abs: 0.20297  Tot: -0.03043 ]
	SubspaceRotationAdjust: set factor to 0.169
ElecMinimize: Iter:   7  G: -1881.158180517839128  |grad|_K:  3.349e-05  alpha:  3.056e-01  linmin:  1.579e-04  t[s]:   1229.38
	FillingsUpdate:  mu: -0.061572446  nElectrons: 449.000000  magneticMoment: [ Abs: 0.21042  Tot: -0.01687 ]
	SubspaceRotationAdjust: set factor to 0.162
ElecMinimize: Iter:   8  G: -1881.211771697704535  |grad|_K:  2.140e-05  alpha:  1.953e-01  linmin: -9.381e-06  t[s]:   1268.21
	FillingsUpdate:  mu: -0.066518020  nElectrons: 449.000000  magneticMoment: [ Abs: 0.21233  Tot: -0.00602 ]
	SubspaceRotationAdjust: set factor to 0.187
ElecMinimize: Iter:   9  G: -1881.260644087290530  |grad|_K:  2.105e-05  alpha:  4.349e-01  linmin:  2.922e-05  t[s]:   1309.90
	FillingsUpdate:  mu: -0.068924098  nElectrons: 449.000000  magneticMoment: [ Abs: 0.21015  Tot: -0.00077 ]
	SubspaceRotationAdjust: set factor to 0.169
ElecMinimize: Iter:  10  G: -1881.286258096902202  |grad|_K:  1.588e-05  alpha:  2.324e-01  linmin: -2.542e-05  t[s]:   1343.49
	FillingsUpdate:  mu: -0.067899990  nElectrons: 449.000000  magneticMoment: [ Abs: 0.20315  Tot: +0.00177 ]
	SubspaceRotationAdjust: set factor to 0.193
ElecMinimize: Iter:  11  G: -1881.303598484492113  |grad|_K:  1.180e-05  alpha:  2.773e-01  linmin:  1.228e-05  t[s]:   1379.89
	FillingsUpdate:  mu: -0.066088874  nElectrons: 449.000000  magneticMoment: [ Abs: 0.19205  Tot: +0.00205 ]
	SubspaceRotationAdjust: set factor to 0.191
ElecMinimize: Iter:  12  G: -1881.315235892997862  |grad|_K:  1.203e-05  alpha:  3.419e-01  linmin:  1.064e-05  t[s]:   1418.11
	FillingsUpdate:  mu: -0.065004066  nElectrons: 449.000000  magneticMoment: [ Abs: 0.18043  Tot: +0.00131 ]
	SubspaceRotationAdjust: set factor to 0.173
ElecMinimize: Iter:  13  G: -1881.322997772120743  |grad|_K:  8.885e-06  alpha:  2.175e-01  linmin: -1.570e-06  t[s]:   1454.37
	FillingsUpdate:  mu: -0.064886190  nElectrons: 449.000000  magneticMoment: [ Abs: 0.16776  Tot: -0.00021 ]
	SubspaceRotationAdjust: set factor to 0.19
ElecMinimize: Iter:  14  G: -1881.328180801769349  |grad|_K:  6.601e-06  alpha:  2.667e-01  linmin:  5.907e-06  t[s]:   1493.52
	FillingsUpdate:  mu: -0.065246731  nElectrons: 449.000000  magneticMoment: [ Abs: 0.15334  Tot: -0.00243 ]
	SubspaceRotationAdjust: set factor to 0.172
ElecMinimize: Iter:  15  G: -1881.331845886996234  |grad|_K:  7.110e-06  alpha:  3.434e-01  linmin:  6.061e-06  t[s]:   1530.32
	FillingsUpdate:  mu: -0.065538492  nElectrons: 449.000000  magneticMoment: [ Abs: 0.14101  Tot: -0.00449 ]
	SubspaceRotationAdjust: set factor to 0.165
ElecMinimize: Iter:  16  G: -1881.334264184506537  |grad|_K:  4.444e-06  alpha:  1.946e-01  linmin: -1.353e-06  t[s]:   1569.63
	FillingsUpdate:  mu: -0.065842489  nElectrons: 449.000000  magneticMoment: [ Abs: 0.12667  Tot: -0.00705 ]
	SubspaceRotationAdjust: set factor to 0.185
ElecMinimize: Iter:  17  G: -1881.336171493236407  |grad|_K:  4.625e-06  alpha:  3.922e-01  linmin:  2.364e-06  t[s]:   1607.04
	FillingsUpdate:  mu: -0.065994384  nElectrons: 449.000000  magneticMoment: [ Abs: 0.11479  Tot: -0.00920 ]
	SubspaceRotationAdjust: set factor to 0.175
ElecMinimize: Iter:  18  G: -1881.337466033046667  |grad|_K:  3.691e-06  alpha:  2.458e-01  linmin: -4.122e-07  t[s]:   1644.98
	FillingsUpdate:  mu: -0.066142102  nElectrons: 449.000000  magneticMoment: [ Abs: 0.10555  Tot: -0.01092 ]
	SubspaceRotationAdjust: set factor to 0.167
ElecMinimize: Iter:  19  G: -1881.338268847479867  |grad|_K:  2.809e-06  alpha:  2.393e-01  linmin:  1.246e-06  t[s]:   1684.64
	FillingsUpdate:  mu: -0.066135112  nElectrons: 449.000000  magneticMoment: [ Abs: 0.09553  Tot: -0.01284 ]
	SubspaceRotationAdjust: set factor to 0.2
ElecMinimize: Iter:  20  G: -1881.338950976951764  |grad|_K:  2.452e-06  alpha:  3.514e-01  linmin:  4.772e-07  t[s]:   1718.88
	FillingsUpdate:  mu: -0.066111430  nElectrons: 449.000000  magneticMoment: [ Abs: 0.08957  Tot: -0.01400 ]
	SubspaceRotationAdjust: set factor to 0.168
ElecMinimize: Iter:  21  G: -1881.339288893588673  |grad|_K:  2.109e-06  alpha:  2.283e-01  linmin:  1.152e-09  t[s]:   1755.57
	FillingsUpdate:  mu: -0.066278462  nElectrons: 449.000000  magneticMoment: [ Abs: 0.08228  Tot: -0.01539 ]
	SubspaceRotationAdjust: set factor to 0.215
ElecMinimize: Iter:  22  G: -1881.339626283078815  |grad|_K:  1.501e-06  alpha:  3.082e-01  linmin:  9.771e-08  t[s]:   1792.79
	FillingsUpdate:  mu: -0.066412610  nElectrons: 449.000000  magneticMoment: [ Abs: 0.07710  Tot: -0.01635 ]
	SubspaceRotationAdjust: set factor to 0.204
ElecMinimize: Iter:  23  G: -1881.339819729399096  |grad|_K:  1.448e-06  alpha:  3.488e-01  linmin:  3.748e-07  t[s]:   1829.42
	FillingsUpdate:  mu: -0.066439630  nElectrons: 449.000000  magneticMoment: [ Abs: 0.07304  Tot: -0.01707 ]
	SubspaceRotationAdjust: set factor to 0.197
ElecMinimize: Iter:  24  G: -1881.339945960107570  |grad|_K:  1.185e-06  alpha:  2.445e-01  linmin: -2.171e-07  t[s]:   1868.59
	FillingsUpdate:  mu: -0.066469893  nElectrons: 449.000000  magneticMoment: [ Abs: 0.07021  Tot: -0.01754 ]
	SubspaceRotationAdjust: set factor to 0.158
ElecMinimize: Iter:  25  G: -1881.340019904622977  |grad|_K:  8.964e-07  alpha:  2.138e-01  linmin: -1.119e-06  t[s]:   1906.29
	FillingsUpdate:  mu: -0.066526640  nElectrons: 449.000000  magneticMoment: [ Abs: 0.06642  Tot: -0.01812 ]
	SubspaceRotationAdjust: set factor to 0.203
ElecMinimize: Iter:  26  G: -1881.340101405182850  |grad|_K:  7.345e-07  alpha:  4.119e-01  linmin:  2.436e-09  t[s]:   1943.92
	FillingsUpdate:  mu: -0.066538022  nElectrons: 449.000000  magneticMoment: [ Abs: 0.06420  Tot: -0.01844 ]
	SubspaceRotationAdjust: set factor to 0.182
ElecMinimize: Iter:  27  G: -1881.340143726632050  |grad|_K:  6.608e-07  alpha:  3.187e-01  linmin: -3.052e-07  t[s]:   1982.45
	FillingsUpdate:  mu: -0.066523328  nElectrons: 449.000000  magneticMoment: [ Abs: 0.06281  Tot: -0.01863 ]
	SubspaceRotationAdjust: set factor to 0.155
ElecMinimize: Iter:  28  G: -1881.340166877502725  |grad|_K:  4.952e-07  alpha:  2.154e-01  linmin: -5.590e-08  t[s]:   2021.14
	FillingsUpdate:  mu: -0.066441912  nElectrons: 449.000000  magneticMoment: [ Abs: 0.06122  Tot: -0.01882 ]
	SubspaceRotationAdjust: set factor to 0.153
ElecMinimize: Iter:  29  G: -1881.340189462898707  |grad|_K:  4.068e-07  alpha:  3.742e-01  linmin: -2.904e-07  t[s]:   2055.98
	FillingsUpdate:  mu: -0.066387244  nElectrons: 449.000000  magneticMoment: [ Abs: 0.06014  Tot: -0.01895 ]
	SubspaceRotationAdjust: set factor to 0.172
ElecMinimize: Iter:  30  G: -1881.340203607373951  |grad|_K:  3.059e-07  alpha:  3.471e-01  linmin: -3.036e-08  t[s]:   2095.08
	FillingsUpdate:  mu: -0.066363758  nElectrons: 449.000000  magneticMoment: [ Abs: 0.05944  Tot: -0.01905 ]
	SubspaceRotationAdjust: set factor to 0.159
ElecMinimize: Iter:  31  G: -1881.340212097351923  |grad|_K:  3.126e-07  alpha:  3.686e-01  linmin: -1.862e-07  t[s]:   2132.34
	FillingsUpdate:  mu: -0.066335770  nElectrons: 449.000000  magneticMoment: [ Abs: 0.05892  Tot: -0.01913 ]
	SubspaceRotationAdjust: set factor to 0.15
ElecMinimize: Iter:  32  G: -1881.340218493178782  |grad|_K:  2.142e-07  alpha:  2.659e-01  linmin: -1.496e-08  t[s]:   2168.09
	FillingsUpdate:  mu: -0.066317540  nElectrons: 449.000000  magneticMoment: [ Abs: 0.05858  Tot: -0.01923 ]
	SubspaceRotationAdjust: set factor to 0.165
ElecMinimize: Iter:  33  G: -1881.340223084646368  |grad|_K:  1.821e-07  alpha:  4.065e-01  linmin:  1.793e-07  t[s]:   2204.34
	FillingsUpdate:  mu: -0.066311703  nElectrons: 449.000000  magneticMoment: [ Abs: 0.05842  Tot: -0.01934 ]
	SubspaceRotationAdjust: set factor to 0.168
ElecMinimize: Iter:  34  G: -1881.340226218270573  |grad|_K:  1.524e-07  alpha:  3.838e-01  linmin:  6.932e-08  t[s]:   2244.03
	FillingsUpdate:  mu: -0.066306426  nElectrons: 449.000000  magneticMoment: [ Abs: 0.05838  Tot: -0.01944 ]
	SubspaceRotationAdjust: set factor to 0.154
ElecMinimize: Iter:  35  G: -1881.340228050856012  |grad|_K:  1.371e-07  alpha:  3.204e-01  linmin:  5.198e-08  t[s]:   2280.19
	FillingsUpdate:  mu: -0.066303890  nElectrons: 449.000000  magneticMoment: [ Abs: 0.05843  Tot: -0.01957 ]
	SubspaceRotationAdjust: set factor to 0.139
ElecMinimize: Iter:  36  G: -1881.340229371341138  |grad|_K:  1.034e-07  alpha:  2.854e-01  linmin:  3.471e-08  t[s]:   2319.75
	FillingsUpdate:  mu: -0.066297711  nElectrons: 449.000000  magneticMoment: [ Abs: 0.05857  Tot: -0.01975 ]
	SubspaceRotationAdjust: set factor to 0.165
ElecMinimize: Iter:  37  G: -1881.340230477025898  |grad|_K:  8.279e-08  alpha:  4.203e-01  linmin:  1.779e-07  t[s]:   2356.84
	FillingsUpdate:  mu: -0.066293454  nElectrons: 449.000000  magneticMoment: [ Abs: 0.05873  Tot: -0.01993 ]
	SubspaceRotationAdjust: set factor to 0.158
ElecMinimize: Iter:  38  G: -1881.340231109309798  |grad|_K:  7.341e-08  alpha:  3.748e-01  linmin:  3.378e-08  t[s]:   2395.77
	FillingsUpdate:  mu: -0.066290983  nElectrons: 449.000000  magneticMoment: [ Abs: 0.05892  Tot: -0.02012 ]
	SubspaceRotationAdjust: set factor to 0.141
ElecMinimize: Iter:  39  G: -1881.340231513597018  |grad|_K:  6.182e-08  alpha:  3.048e-01  linmin: -5.743e-08  t[s]:   2433.90
	FillingsUpdate:  mu: -0.066286499  nElectrons: 449.000000  magneticMoment: [ Abs: 0.05916  Tot: -0.02034 ]
	SubspaceRotationAdjust: set factor to 0.132
	SubspaceRotationAdjust: resetting CG because factor has changed by 0.132376
ElecMinimize: 	State modified externally: resetting search direction.
ElecMinimize: Iter:  40  G: -1881.340231811822605  |grad|_K:  4.573e-08  alpha:  3.169e-01
	FillingsUpdate:  mu: -0.066287921  nElectrons: 449.000000  magneticMoment: [ Abs: 0.05926  Tot: -0.02043 ]
	SubspaceRotationAdjust: set factor to 0.157
ElecMinimize: Iter:  41  G: -1881.340232025807609  |grad|_K:  3.347e-08  alpha:  4.156e-01  linmin: -2.192e-06  t[s]:   2533.14
	FillingsUpdate:  mu: -0.066289438  nElectrons: 449.000000  magneticMoment: [ Abs: 0.05943  Tot: -0.02060 ]
	SubspaceRotationAdjust: set factor to 0.122
ElecMinimize: Iter:  42  G: -1881.340232152462477  |grad|_K:  3.328e-08  alpha:  4.588e-01  linmin: -1.246e-07  t[s]:   2569.74
	FillingsUpdate:  mu: -0.066291977  nElectrons: 449.000000  magneticMoment: [ Abs: 0.05961  Tot: -0.02078 ]
	SubspaceRotationAdjust: set factor to 0.0901
ElecMinimize: Iter:  43  G: -1881.340232229349340  |grad|_K:  2.341e-08  alpha:  2.823e-01  linmin: -2.556e-07  t[s]:   2604.85
	FillingsUpdate:  mu: -0.066293121  nElectrons: 449.000000  magneticMoment: [ Abs: 0.05995  Tot: -0.02110 ]
	SubspaceRotationAdjust: set factor to 0.101
ElecMinimize: Iter:  44  G: -1881.340232308067243  |grad|_K:  1.724e-08  alpha:  5.848e-01  linmin:  2.382e-06  t[s]:   2644.56
	FillingsUpdate:  mu: -0.066292760  nElectrons: 449.000000  magneticMoment: [ Abs: 0.06027  Tot: -0.02141 ]
	SubspaceRotationAdjust: set factor to 0.111
ElecMinimize: Iter:  45  G: -1881.340232355189755  |grad|_K:  1.574e-08  alpha:  6.455e-01  linmin: -4.236e-07  t[s]:   2683.42
	FillingsUpdate:  mu: -0.066294175  nElectrons: 449.000000  magneticMoment: [ Abs: 0.06062  Tot: -0.02175 ]
	SubspaceRotationAdjust: set factor to 0.099
ElecMinimize: Iter:  46  G: -1881.340232389254425  |grad|_K:  1.453e-08  alpha:  5.582e-01  linmin:  4.380e-08  t[s]:   2720.50
	FillingsUpdate:  mu: -0.066294809  nElectrons: 449.000000  magneticMoment: [ Abs: 0.06094  Tot: -0.02205 ]
	SubspaceRotationAdjust: set factor to 0.0767
ElecMinimize: Iter:  47  G: -1881.340232409947248  |grad|_K:  1.170e-08  alpha:  3.983e-01  linmin: -1.670e-08  t[s]:   2758.69
	FillingsUpdate:  mu: -0.066295870  nElectrons: 449.000000  magneticMoment: [ Abs: 0.06137  Tot: -0.02246 ]
	SubspaceRotationAdjust: set factor to 0.0868
ElecMinimize: Iter:  48  G: -1881.340232429556863  |grad|_K:  8.253e-09  alpha:  5.853e-01  linmin:  1.850e-06  t[s]:   2797.74
	FillingsUpdate:  mu: -0.066297290  nElectrons: 449.000000  magneticMoment: [ Abs: 0.06172  Tot: -0.02280 ]
	SubspaceRotationAdjust: set factor to 0.0914
ElecMinimize: Iter:  49  G: -1881.340232440086766  |grad|_K:  6.975e-09  alpha:  6.341e-01  linmin:  7.017e-07  t[s]:   2833.85
	FillingsUpdate:  mu: -0.066297533  nElectrons: 449.000000  magneticMoment: [ Abs: 0.06203  Tot: -0.02309 ]
	SubspaceRotationAdjust: set factor to 0.0788
ElecMinimize: Iter:  50  G: -1881.340232446092614  |grad|_K:  5.881e-09  alpha:  5.027e-01  linmin:  1.348e-06  t[s]:   2871.41
	FillingsUpdate:  mu: -0.066297246  nElectrons: 449.000000  magneticMoment: [ Abs: 0.06237  Tot: -0.02342 ]
	SubspaceRotationAdjust: set factor to 0.0736
ElecMinimize: Iter:  51  G: -1881.340232450555050  |grad|_K:  4.781e-09  alpha:  5.208e-01  linmin: -8.065e-07  t[s]:   2910.58
ElecMinimize: Converged (|Delta G|<1.000000e-08 for 2 iters).
Setting wave functions to eigenvectors of Hamiltonian
Vacuum energy after initial minimize, F = -1881.340232450555050

Shifting auxilliary hamiltonian by -0.104955 to set nElectrons=449.000000
	Linear fluid (dielectric constant: 78.4, screening length: 5.74355 Bohr) occupying 0.727945 of unit cell:	Completed after 16 iterations at t[s]:   2921.27

-------- Electronic minimization -----------
	Linear fluid (dielectric constant: 78.4, screening length: 5.74355 Bohr) occupying 0.727945 of unit cell:	Completed after 0 iterations at t[s]:   2931.24
	FillingsUpdate:  mu: -0.171251800  nElectrons: 449.000000  magneticMoment: [ Abs: 0.06474  Tot: -0.02590 ]
ElecMinimize: Iter:   0  G: -1881.325657790373043  |grad|_K:  1.107e-05  alpha:  1.000e+00
	Linear fluid (dielectric constant: 78.4, screening length: 5.74355 Bohr) occupying 0.729460 of unit cell:	Completed after 15 iterations at t[s]:   2962.51
	Linear fluid (dielectric constant: 78.4, screening length: 5.74355 Bohr) occupying 0.728195 of unit cell:	Completed after 15 iterations at t[s]:   2977.48
	FillingsUpdate:  mu: -0.171251800  nElectrons: 448.508477  magneticMoment: [ Abs: 0.06479  Tot: -0.02593 ]
	SubspaceRotationAdjust: set factor to 0.0615
ElecMinimize: Iter:   1  G: -1881.330741071391913  |grad|_K:  3.599e-06  alpha:  1.711e-01  linmin:  2.340e-03  t[s]:   2990.80
	Linear fluid (dielectric constant: 78.4, screening length: 5.74355 Bohr) occupying 0.728418 of unit cell:	Completed after 6 iterations at t[s]:   3002.31
ElecMinimize: 	Predicted alpha/alphaT>3.000000, increasing alphaT to 5.132257e-01.
	Linear fluid (dielectric constant: 78.4, screening length: 5.74355 Bohr) occupying 0.728866 of unit cell:	Completed after 7 iterations at t[s]:   3016.96
	Linear fluid (dielectric constant: 78.4, screening length: 5.74355 Bohr) occupying 0.730013 of unit cell:	Completed after 9 iterations at t[s]:   3031.41
	FillingsUpdate:  mu: -0.171251800  nElectrons: 448.194643  magneticMoment: [ Abs: 0.06533  Tot: -0.02636 ]
	SubspaceRotationAdjust: set factor to 0.0688
ElecMinimize: Iter:   2  G: -1881.335124800347785  |grad|_K:  5.610e-06  alpha:  1.382e+00  linmin: -3.431e-04  t[s]:   3045.64
	Linear fluid (dielectric constant: 78.4, screening length: 5.74355 Bohr) occupying 0.736376 of unit cell:	Completed after 14 iterations at t[s]:   3060.20
	Linear fluid (dielectric constant: 78.4, screening length: 5.74355 Bohr) occupying 0.734100 of unit cell:	Completed after 12 iterations at t[s]:   3076.92
	FillingsUpdate:  mu: -0.171251800  nElectrons: 447.499077  magneticMoment: [ Abs: 0.06665  Tot: -0.02726 ]
	SubspaceRotationAdjust: set factor to 0.0721
ElecMinimize: Iter:   3  G: -1881.341996858990797  |grad|_K:  6.259e-06  alpha:  8.945e-01  linmin:  2.771e-05  t[s]:   3092.14
	Linear fluid (dielectric constant: 78.4, screening length: 5.74355 Bohr) occupying 0.740474 of unit cell:	Completed after 14 iterations at t[s]:   3105.67
	Linear fluid (dielectric constant: 78.4, screening length: 5.74355 Bohr) occupying 0.741667 of unit cell:	Completed after 10 iterations at t[s]:   3121.28
	FillingsUpdate:  mu: -0.171251800  nElectrons: 447.026754  magneticMoment: [ Abs: 0.06927  Tot: -0.02900 ]
	SubspaceRotationAdjust: set factor to 0.0513
ElecMinimize: Iter:   4  G: -1881.352318401894308  |grad|_K:  9.920e-06  alpha:  1.062e+00  linmin: -6.642e-04  t[s]:   3136.73
	Linear fluid (dielectric constant: 78.4, screening length: 5.74355 Bohr) occupying 0.760257 of unit cell:	Completed after 20 iterations at t[s]:   3152.03
	Linear fluid (dielectric constant: 78.4, screening length: 5.74355 Bohr) occupying 0.755839 of unit cell:	Completed after 16 iterations at t[s]:   3166.83
	FillingsUpdate:  mu: -0.171251800  nElectrons: 444.542356  magneticMoment: [ Abs: 0.07350  Tot: -0.03244 ]
	SubspaceRotationAdjust: set factor to 0.0355
ElecMinimize: Iter:   5  G: -1881.370987900209457  |grad|_K:  1.322e-05  alpha:  7.796e-01  linmin: -2.498e-04  t[s]:   3181.55
	Linear fluid (dielectric constant: 78.4, screening length: 5.74355 Bohr) occupying 0.773114 of unit cell:	Completed after 21 iterations at t[s]:   3197.62
ElecMinimize: 	Predicted alpha/alphaT>3.000000, increasing alphaT to 2.338851e+00.
	Linear fluid (dielectric constant: 78.4, screening length: 5.74355 Bohr) occupying 0.785198 of unit cell:	Completed after 21 iterations at t[s]:   3213.56
	Linear fluid (dielectric constant: 78.4, screening length: 5.74355 Bohr) occupying 0.778817 of unit cell:	Completed after 18 iterations at t[s]:   3229.48
	FillingsUpdate:  mu: -0.171251800  nElectrons: 441.424274  magneticMoment: [ Abs: 0.07903  Tot: -0.03970 ]
	SubspaceRotationAdjust: set factor to 0.0327
ElecMinimize: Iter:   6  G: -1881.459079173379905  |grad|_K:  1.719e-05  alpha:  1.251e+00  linmin: -9.764e-04  t[s]:   3243.71
	Linear fluid (dielectric constant: 78.4, screening length: 5.74355 Bohr) occupying 0.788506 of unit cell:	Completed after 22 iterations at t[s]:   3260.44
	Linear fluid (dielectric constant: 78.4, screening length: 5.74355 Bohr) occupying 0.783509 of unit cell:	Completed after 20 iterations at t[s]:   3277.41
	FillingsUpdate:  mu: -0.171251800  nElectrons: 440.849302  magneticMoment: [ Abs: 0.07974  Tot: -0.04209 ]
	SubspaceRotationAdjust: set factor to 0.0339
ElecMinimize: Iter:   7  G: -1881.497468961594677  |grad|_K:  1.873e-05  alpha:  3.802e-01  linmin: -1.286e-03  t[s]:   3293.07
	Linear fluid (dielectric constant: 78.4, screening length: 5.74355 Bohr) occupying 0.786698 of unit cell:	Completed after 20 iterations at t[s]:   3307.45
	Linear fluid (dielectric constant: 78.4, screening length: 5.74355 Bohr) occupying 0.786675 of unit cell:	Completed after 8 iterations at t[s]:   3320.66
	FillingsUpdate:  mu: -0.171251800  nElectrons: 440.173186  magneticMoment: [ Abs: 0.07979  Tot: -0.04423 ]
	SubspaceRotationAdjust: set factor to 0.0251
ElecMinimize: Iter:   8  G: -1881.535220139862304  |grad|_K:  2.244e-05  alpha:  3.766e-01  linmin:  2.697e-05  t[s]:   3336.36
	Linear fluid (dielectric constant: 78.4, screening length: 5.74355 Bohr) occupying 0.789102 of unit cell:	Completed after 18 iterations at t[s]:   3349.28
	Linear fluid (dielectric constant: 78.4, screening length: 5.74355 Bohr) occupying 0.788748 of unit cell:	Completed after 14 iterations at t[s]:   3363.91
	FillingsUpdate:  mu: -0.171251800  nElectrons: 439.204790  magneticMoment: [ Abs: 0.07955  Tot: -0.04595 ]
	SubspaceRotationAdjust: set factor to 0.0246
ElecMinimize: Iter:   9  G: -1881.571743230256061  |grad|_K:  2.139e-05  alpha:  3.026e-01  linmin: -1.391e-04  t[s]:   3378.38
	Linear fluid (dielectric constant: 78.4, screening length: 5.74355 Bohr) occupying 0.789799 of unit cell:	Completed after 18 iterations at t[s]:   3394.12
	Linear fluid (dielectric constant: 78.4, screening length: 5.74355 Bohr) occupying 0.789971 of unit cell:	Completed after 13 iterations at t[s]:   3410.50
	FillingsUpdate:  mu: -0.171251800  nElectrons: 437.984154  magneticMoment: [ Abs: 0.07969  Tot: -0.04718 ]
	SubspaceRotationAdjust: set factor to 0.0378
ElecMinimize: Iter:  10  G: -1881.616252721980118  |grad|_K:  1.765e-05  alpha:  3.737e-01  linmin: -6.497e-04  t[s]:   3425.29
	Linear fluid (dielectric constant: 78.4, screening length: 5.74355 Bohr) occupying 0.790728 of unit cell:	Completed after 16 iterations at t[s]:   3439.41
	Linear fluid (dielectric constant: 78.4, screening length: 5.74355 Bohr) occupying 0.790866 of unit cell:	Completed after 13 iterations at t[s]:   3456.95
	FillingsUpdate:  mu: -0.171251800  nElectrons: 436.764997  magneticMoment: [ Abs: 0.07960  Tot: -0.04767 ]
	SubspaceRotationAdjust: set factor to 0.0455
ElecMinimize: Iter:  11  G: -1881.656146329758030  |grad|_K:  1.173e-05  alpha:  4.575e-01  linmin: -7.241e-04  t[s]:   3471.15
	Linear fluid (dielectric constant: 78.4, screening length: 5.74355 Bohr) occupying 0.791872 of unit cell:	Completed after 18 iterations at t[s]:   3486.96
	Linear fluid (dielectric constant: 78.4, screening length: 5.74355 Bohr) occupying 0.792012 of unit cell:	Completed after 12 iterations at t[s]:   3502.25
	FillingsUpdate:  mu: -0.171251800  nElectrons: 436.001861  magneticMoment: [ Abs: 0.07898  Tot: -0.04766 ]
	SubspaceRotationAdjust: set factor to 0.0448
ElecMinimize: Iter:  12  G: -1881.675675320661412  |grad|_K:  9.729e-06  alpha:  5.267e-01  linmin: -1.841e-04  t[s]:   3519.81
	Linear fluid (dielectric constant: 78.4, screening length: 5.74355 Bohr) occupying 0.793239 of unit cell:	Completed after 18 iterations at t[s]:   3534.29
	Linear fluid (dielectric constant: 78.4, screening length: 5.74355 Bohr) occupying 0.793394 of unit cell:	Completed after 12 iterations at t[s]:   3549.91
	FillingsUpdate:  mu: -0.171251800  nElectrons: 435.695114  magneticMoment: [ Abs: 0.07840  Tot: -0.04783 ]
	SubspaceRotationAdjust: set factor to 0.05
ElecMinimize: Iter:  13  G: -1881.689944687203024  |grad|_K:  7.593e-06  alpha:  6.010e-01  linmin:  4.415e-05  t[s]:   3564.58
	Linear fluid (dielectric constant: 78.4, screening length: 5.74355 Bohr) occupying 0.794283 of unit cell:	Completed after 16 iterations at t[s]:   3579.55
	Linear fluid (dielectric constant: 78.4, screening length: 5.74355 Bohr) occupying 0.794163 of unit cell:	Completed after 11 iterations at t[s]:   3594.27
	FillingsUpdate:  mu: -0.171251800  nElectrons: 435.641119  magneticMoment: [ Abs: 0.07780  Tot: -0.04791 ]
	SubspaceRotationAdjust: set factor to 0.0525
ElecMinimize: Iter:  14  G: -1881.697234193378335  |grad|_K:  6.099e-06  alpha:  5.154e-01  linmin:  2.293e-06  t[s]:   3608.63
	Linear fluid (dielectric constant: 78.4, screening length: 5.74355 Bohr) occupying 0.794573 of unit cell:	Completed after 14 iterations at t[s]:   3624.06
	Linear fluid (dielectric constant: 78.4, screening length: 5.74355 Bohr) occupying 0.794620 of unit cell:	Completed after 6 iterations at t[s]:   3639.45
	FillingsUpdate:  mu: -0.171251800  nElectrons: 435.391683  magneticMoment: [ Abs: 0.07652  Tot: -0.04761 ]
	SubspaceRotationAdjust: set factor to 0.067
ElecMinimize: Iter:  15  G: -1881.702530680386417  |grad|_K:  4.865e-06  alpha:  5.782e-01  linmin: -4.649e-05  t[s]:   3654.13
	Linear fluid (dielectric constant: 78.4, screening length: 5.74355 Bohr) occupying 0.794822 of unit cell:	Completed after 16 iterations at t[s]:   3667.34
	Linear fluid (dielectric constant: 78.4, screening length: 5.74355 Bohr) occupying 0.794803 of unit cell:	Completed after 10 iterations at t[s]:   3683.30
	FillingsUpdate:  mu: -0.171251800  nElectrons: 435.099267  magneticMoment: [ Abs: 0.07502  Tot: -0.04710 ]
	SubspaceRotationAdjust: set factor to 0.0718
ElecMinimize: Iter:  16  G: -1881.705572569973810  |grad|_K:  4.087e-06  alpha:  5.215e-01  linmin: -5.475e-05  t[s]:   3699.15
	Linear fluid (dielectric constant: 78.4, screening length: 5.74355 Bohr) occupying 0.794927 of unit cell:	Completed after 9 iterations at t[s]:   3711.80
	Linear fluid (dielectric constant: 78.4, screening length: 5.74355 Bohr) occupying 0.794946 of unit cell:	Completed after 4 iterations at t[s]:   3724.32
	FillingsUpdate:  mu: -0.171251800  nElectrons: 435.009698  magneticMoment: [ Abs: 0.07306  Tot: -0.04655 ]
	SubspaceRotationAdjust: set factor to 0.0944
ElecMinimize: Iter:  17  G: -1881.708092952507286  |grad|_K:  3.836e-06  alpha:  6.101e-01  linmin: -1.640e-05  t[s]:   3739.96
	Linear fluid (dielectric constant: 78.4, screening length: 5.74355 Bohr) occupying 0.795064 of unit cell:	Completed after 12 iterations at t[s]:   3753.05
	Linear fluid (dielectric constant: 78.4, screening length: 5.74355 Bohr) occupying 0.795073 of unit cell:	Completed after 8 iterations at t[s]:   3766.66
	FillingsUpdate:  mu: -0.171251800  nElectrons: 435.097002  magneticMoment: [ Abs: 0.07034  Tot: -0.04583 ]
	SubspaceRotationAdjust: set factor to 0.102
ElecMinimize: Iter:  18  G: -1881.710496479852509  |grad|_K:  4.214e-06  alpha:  6.623e-01  linmin:  1.452e-05  t[s]:   3781.85
	Linear fluid (dielectric constant: 78.4, screening length: 5.74355 Bohr) occupying 0.795176 of unit cell:	Completed after 14 iterations at t[s]:   3796.94
	Linear fluid (dielectric constant: 78.4, screening length: 5.74355 Bohr) occupying 0.795171 of unit cell:	Completed after 3 iterations at t[s]:   3811.53
	FillingsUpdate:  mu: -0.171251800  nElectrons: 435.033564  magneticMoment: [ Abs: 0.06599  Tot: -0.04439 ]
	SubspaceRotationAdjust: set factor to 0.115
ElecMinimize: Iter:  19  G: -1881.713213656483958  |grad|_K:  4.109e-06  alpha:  6.252e-01  linmin: -1.916e-05  t[s]:   3825.68
	Linear fluid (dielectric constant: 78.4, screening length: 5.74355 Bohr) occupying 0.795230 of unit cell:	Completed after 14 iterations at t[s]:   3840.13
	Linear fluid (dielectric constant: 78.4, screening length: 5.74355 Bohr) occupying 0.795225 of unit cell:	Completed after 4 iterations at t[s]:   3856.31
	FillingsUpdate:  mu: -0.171251800  nElectrons: 434.996345  magneticMoment: [ Abs: 0.06141  Tot: -0.04271 ]
	SubspaceRotationAdjust: set factor to 0.123
ElecMinimize: Iter:  20  G: -1881.715602016997309  |grad|_K:  3.688e-06  alpha:  5.702e-01  linmin: -6.945e-06  t[s]:   3870.91
	Linear fluid (dielectric constant: 78.4, screening length: 5.74355 Bohr) occupying 0.795264 of unit cell:	Completed after 12 iterations at t[s]:   3884.76
	Linear fluid (dielectric constant: 78.4, screening length: 5.74355 Bohr) occupying 0.795263 of unit cell:	Completed after 2 iterations at t[s]:   3898.67
	FillingsUpdate:  mu: -0.171251800  nElectrons: 435.023791  magneticMoment: [ Abs: 0.05700  Tot: -0.04097 ]
	SubspaceRotationAdjust: set factor to 0.126
ElecMinimize: Iter:  21  G: -1881.717472896563322  |grad|_K:  3.107e-06  alpha:  5.568e-01  linmin:  9.695e-06  t[s]:   3913.71
	Linear fluid (dielectric constant: 78.4, screening length: 5.74355 Bohr) occupying 0.795310 of unit cell:	Completed after 14 iterations at t[s]:   3928.61
	Linear fluid (dielectric constant: 78.4, screening length: 5.74355 Bohr) occupying 0.795302 of unit cell:	Completed after 10 iterations at t[s]:   3942.82
	FillingsUpdate:  mu: -0.171251800  nElectrons: 434.927755  magneticMoment: [ Abs: 0.05367  Tot: -0.03947 ]
	SubspaceRotationAdjust: set factor to 0.121
ElecMinimize: Iter:  22  G: -1881.718540509081322  |grad|_K:  2.570e-06  alpha:  4.528e-01  linmin: -7.552e-06  t[s]:   3959.14
	Linear fluid (dielectric constant: 78.4, screening length: 5.74355 Bohr) occupying 0.795358 of unit cell:	Completed after 12 iterations at t[s]:   3973.54
	Linear fluid (dielectric constant: 78.4, screening length: 5.74355 Bohr) occupying 0.795354 of unit cell:	Completed after 7 iterations at t[s]:   3990.30
	FillingsUpdate:  mu: -0.171251800  nElectrons: 434.945796  magneticMoment: [ Abs: 0.05107  Tot: -0.03823 ]
	SubspaceRotationAdjust: set factor to 0.112
ElecMinimize: Iter:  23  G: -1881.719217768847557  |grad|_K:  1.850e-06  alpha:  4.146e-01  linmin:  8.291e-06  t[s]:   4004.91
	Linear fluid (dielectric constant: 78.4, screening length: 5.74355 Bohr) occupying 0.795409 of unit cell:	Completed after 12 iterations at t[s]:   4023.02
	Linear fluid (dielectric constant: 78.4, screening length: 5.74355 Bohr) occupying 0.795414 of unit cell:	Completed after 3 iterations at t[s]:   4037.48
	FillingsUpdate:  mu: -0.171251800  nElectrons: 434.865623  magneticMoment: [ Abs: 0.04894  Tot: -0.03710 ]
	SubspaceRotationAdjust: set factor to 0.115
ElecMinimize: Iter:  24  G: -1881.719597512382961  |grad|_K:  1.349e-06  alpha:  4.520e-01  linmin: -1.756e-05  t[s]:   4052.46
	Linear fluid (dielectric constant: 78.4, screening length: 5.74355 Bohr) occupying 0.795467 of unit cell:	Completed after 6 iterations at t[s]:   4066.30
	Linear fluid (dielectric constant: 78.4, screening length: 5.74355 Bohr) occupying 0.795471 of unit cell:	Completed after 0 iterations at t[s]:   4080.23
	FillingsUpdate:  mu: -0.171251800  nElectrons: 434.837595  magneticMoment: [ Abs: 0.04719  Tot: -0.03613 ]
	SubspaceRotationAdjust: set factor to 0.135
ElecMinimize: Iter:  25  G: -1881.719814064780394  |grad|_K:  9.959e-07  alpha:  4.803e-01  linmin: -1.065e-05  t[s]:   4097.04
	Linear fluid (dielectric constant: 78.4, screening length: 5.74355 Bohr) occupying 0.795510 of unit cell:	Completed after 10 iterations at t[s]:   4113.11
	Linear fluid (dielectric constant: 78.4, screening length: 5.74355 Bohr) occupying 0.795509 of unit cell:	Completed after 0 iterations at t[s]:   4126.79
	FillingsUpdate:  mu: -0.171251800  nElectrons: 434.850670  magneticMoment: [ Abs: 0.04573  Tot: -0.03529 ]
	SubspaceRotationAdjust: set factor to 0.139
ElecMinimize: Iter:  26  G: -1881.719927605473231  |grad|_K:  8.863e-07  alpha:  4.636e-01  linmin:  8.147e-06  t[s]:   4145.21
	Linear fluid (dielectric constant: 78.4, screening length: 5.74355 Bohr) occupying 0.795541 of unit cell:	Completed after 11 iterations at t[s]:   4161.35
	Linear fluid (dielectric constant: 78.4, screening length: 5.74355 Bohr) occupying 0.795536 of unit cell:	Completed after 7 iterations at t[s]:   4178.41
	FillingsUpdate:  mu: -0.171251800  nElectrons: 434.806537  magneticMoment: [ Abs: 0.04418  Tot: -0.03437 ]
	SubspaceRotationAdjust: set factor to 0.14
ElecMinimize: Iter:  27  G: -1881.720002622748098  |grad|_K:  7.344e-07  alpha:  3.898e-01  linmin: -5.992e-06  t[s]:   4193.02
	Linear fluid (dielectric constant: 78.4, screening length: 5.74355 Bohr) occupying 0.795555 of unit cell:	Completed after 8 iterations at t[s]:   4208.23
	Linear fluid (dielectric constant: 78.4, screening length: 5.74355 Bohr) occupying 0.795559 of unit cell:	Completed after 3 iterations at t[s]:   4225.32
	FillingsUpdate:  mu: -0.171251800  nElectrons: 434.803136  magneticMoment: [ Abs: 0.04217  Tot: -0.03318 ]
	SubspaceRotationAdjust: set factor to 0.167
ElecMinimize: Iter:  28  G: -1881.720067588813208  |grad|_K:  6.446e-07  alpha:  4.877e-01  linmin: -6.877e-06  t[s]:   4241.30
	Linear fluid (dielectric constant: 78.4, screening length: 5.74355 Bohr) occupying 0.795575 of unit cell:	Completed after 4 iterations at t[s]:   4255.71
	Linear fluid (dielectric constant: 78.4, screening length: 5.74355 Bohr) occupying 0.795578 of unit cell:	Completed after 3 iterations at t[s]:   4271.99
	FillingsUpdate:  mu: -0.171251800  nElectrons: 434.792144  magneticMoment: [ Abs: 0.03952  Tot: -0.03160 ]
	SubspaceRotationAdjust: set factor to 0.193
ElecMinimize: Iter:  29  G: -1881.720127326217835  |grad|_K:  5.850e-07  alpha:  5.822e-01  linmin:  2.734e-06  t[s]:   4290.62
	Linear fluid (dielectric constant: 78.4, screening length: 5.74355 Bohr) occupying 0.795592 of unit cell:	Completed after 10 iterations at t[s]:   4305.00
	Linear fluid (dielectric constant: 78.4, screening length: 5.74355 Bohr) occupying 0.795590 of unit cell:	Completed after 2 iterations at t[s]:   4319.03
	FillingsUpdate:  mu: -0.171251800  nElectrons: 434.771252  magneticMoment: [ Abs: 0.03693  Tot: -0.03002 ]
	SubspaceRotationAdjust: set factor to 0.201
ElecMinimize: Iter:  30  G: -1881.720168768061967  |grad|_K:  5.477e-07  alpha:  4.916e-01  linmin:  1.320e-05  t[s]:   4337.32
	Linear fluid (dielectric constant: 78.4, screening length: 5.74355 Bohr) occupying 0.795596 of unit cell:	Completed after 10 iterations at t[s]:   4352.10
	Linear fluid (dielectric constant: 78.4, screening length: 5.74355 Bohr) occupying 0.795593 of unit cell:	Completed after 9 iterations at t[s]:   4368.19
	FillingsUpdate:  mu: -0.171251800  nElectrons: 434.785543  magneticMoment: [ Abs: 0.03512  Tot: -0.02889 ]
	SubspaceRotationAdjust: set factor to 0.163
ElecMinimize: Iter:  31  G: -1881.720190150507506  |grad|_K:  5.155e-07  alpha:  2.950e-01  linmin: -2.016e-06  t[s]:   4383.81
	Linear fluid (dielectric constant: 78.4, screening length: 5.74355 Bohr) occupying 0.795598 of unit cell:	Completed after 9 iterations at t[s]:   4399.17
	Linear fluid (dielectric constant: 78.4, screening length: 5.74355 Bohr) occupying 0.795598 of unit cell:	Completed after 0 iterations at t[s]:   4414.25
	FillingsUpdate:  mu: -0.171251800  nElectrons: 434.764924  magneticMoment: [ Abs: 0.03308  Tot: -0.02757 ]
	SubspaceRotationAdjust: set factor to 0.138
ElecMinimize: Iter:  32  G: -1881.720209250604285  |grad|_K:  3.544e-07  alpha:  2.916e-01  linmin: -5.590e-06  t[s]:   4429.25
	Linear fluid (dielectric constant: 78.4, screening length: 5.74355 Bohr) occupying 0.795600 of unit cell:	Completed after 2 iterations at t[s]:   4443.24
	Linear fluid (dielectric constant: 78.4, screening length: 5.74355 Bohr) occupying 0.795600 of unit cell:	Completed after 2 iterations at t[s]:   4459.49
	FillingsUpdate:  mu: -0.171251800  nElectrons: 434.764454  magneticMoment: [ Abs: 0.03104  Tot: -0.02623 ]
	SubspaceRotationAdjust: set factor to 0.168
ElecMinimize: Iter:  33  G: -1881.720223426642406  |grad|_K:  2.714e-07  alpha:  4.577e-01  linmin:  1.856e-06  t[s]:   4476.06
	Linear fluid (dielectric constant: 78.4, screening length: 5.74355 Bohr) occupying 0.795601 of unit cell:	Completed after 8 iterations at t[s]:   4490.23
	Linear fluid (dielectric constant: 78.4, screening length: 5.74355 Bohr) occupying 0.795601 of unit cell:	Completed after 0 iterations at t[s]:   4505.34
	FillingsUpdate:  mu: -0.171251800  nElectrons: 434.773011  magneticMoment: [ Abs: 0.02964  Tot: -0.02529 ]
	SubspaceRotationAdjust: set factor to 0.159
ElecMinimize: Iter:  34  G: -1881.720230612037767  |grad|_K:  2.658e-07  alpha:  3.971e-01  linmin:  3.336e-05  t[s]:   4523.53
	Linear fluid (dielectric constant: 78.4, screening length: 5.74355 Bohr) occupying 0.795602 of unit cell:	Completed after 8 iterations at t[s]:   4537.14
	Linear fluid (dielectric constant: 78.4, screening length: 5.74355 Bohr) occupying 0.795601 of unit cell:	Completed after 5 iterations at t[s]:   4553.47
	FillingsUpdate:  mu: -0.171251800  nElectrons: 434.764474  magneticMoment: [ Abs: 0.02853  Tot: -0.02451 ]
	SubspaceRotationAdjust: set factor to 0.135
ElecMinimize: Iter:  35  G: -1881.720234865517796  |grad|_K:  2.074e-07  alpha:  2.524e-01  linmin:  3.435e-05  t[s]:   4570.14
	Linear fluid (dielectric constant: 78.4, screening length: 5.74355 Bohr) occupying 0.795601 of unit cell:	Completed after 3 iterations at t[s]:   4584.70
	Linear fluid (dielectric constant: 78.4, screening length: 5.74355 Bohr) occupying 0.795601 of unit cell:	Completed after 3 iterations at t[s]:   4598.63
	FillingsUpdate:  mu: -0.171251800  nElectrons: 434.767460  magneticMoment: [ Abs: 0.02709  Tot: -0.02348 ]
	SubspaceRotationAdjust: set factor to 0.171
ElecMinimize: Iter:  36  G: -1881.720239054304102  |grad|_K:  1.560e-07  alpha:  4.013e-01  linmin: -3.899e-05  t[s]:   4615.73
	Linear fluid (dielectric constant: 78.4, screening length: 5.74355 Bohr) occupying 0.795601 of unit cell:	Completed after 4 iterations at t[s]:   4630.34
	Linear fluid (dielectric constant: 78.4, screening length: 5.74355 Bohr) occupying 0.795601 of unit cell:	Completed after 0 iterations at t[s]:   4647.34
	FillingsUpdate:  mu: -0.171251800  nElectrons: 434.771238  magneticMoment: [ Abs: 0.02580  Tot: -0.02252 ]
	SubspaceRotationAdjust: set factor to 0.194
ElecMinimize: Iter:  37  G: -1881.720241970469488  |grad|_K:  1.388e-07  alpha:  4.722e-01  linmin: -7.275e-05  t[s]:   4662.11
	Linear fluid (dielectric constant: 78.4, screening length: 5.74355 Bohr) occupying 0.795600 of unit cell:	Completed after 3 iterations at t[s]:   4674.29
	Linear fluid (dielectric constant: 78.4, screening length: 5.74355 Bohr) occupying 0.795600 of unit cell:	Completed after 0 iterations at t[s]:   4686.74
	FillingsUpdate:  mu: -0.171251800  nElectrons: 434.766850  magneticMoment: [ Abs: 0.02456  Tot: -0.02156 ]
	SubspaceRotationAdjust: set factor to 0.197
ElecMinimize: Iter:  38  G: -1881.720244017635423  |grad|_K:  1.262e-07  alpha:  4.110e-01  linmin:  6.308e-05  t[s]:   4701.22
	Linear fluid (dielectric constant: 78.4, screening length: 5.74355 Bohr) occupying 0.795598 of unit cell:	Completed after 2 iterations at t[s]:   4713.64
	Linear fluid (dielectric constant: 78.4, screening length: 5.74355 Bohr) occupying 0.795598 of unit cell:	Completed after 0 iterations at t[s]:   4727.62
	FillingsUpdate:  mu: -0.171251800  nElectrons: 434.770157  magneticMoment: [ Abs: 0.02320  Tot: -0.02048 ]
	SubspaceRotationAdjust: set factor to 0.231
ElecMinimize: Iter:  39  G: -1881.720245530249258  |grad|_K:  9.777e-08  alpha:  4.051e-01  linmin: -3.096e-05  t[s]:   4744.00
	Linear fluid (dielectric constant: 78.4, screening length: 5.74355 Bohr) occupying 0.795597 of unit cell:	Completed after 3 iterations at t[s]:   4758.94
	Linear fluid (dielectric constant: 78.4, screening length: 5.74355 Bohr) occupying 0.795597 of unit cell:	Completed after 0 iterations at t[s]:   4775.26
	FillingsUpdate:  mu: -0.171251800  nElectrons: 434.772694  magneticMoment: [ Abs: 0.02191  Tot: -0.01942 ]
	SubspaceRotationAdjust: set factor to 0.258
ElecMinimize: Iter:  40  G: -1881.720246631083683  |grad|_K:  8.570e-08  alpha:  4.527e-01  linmin: -4.305e-05  t[s]:   4790.08
	Linear fluid (dielectric constant: 78.4, screening length: 5.74355 Bohr) occupying 0.795595 of unit cell:	Completed after 2 iterations at t[s]:   4803.47
	Linear fluid (dielectric constant: 78.4, screening length: 5.74355 Bohr) occupying 0.795596 of unit cell:	Completed after 0 iterations at t[s]:   4820.78
	FillingsUpdate:  mu: -0.171251800  nElectrons: 434.770774  magneticMoment: [ Abs: 0.02079  Tot: -0.01848 ]
	SubspaceRotationAdjust: set factor to 0.234
ElecMinimize: Iter:  41  G: -1881.720247329039466  |grad|_K:  7.583e-08  alpha:  3.631e-01  linmin:  6.556e-05  t[s]:   4837.49
	Linear fluid (dielectric constant: 78.4, screening length: 5.74355 Bohr) occupying 0.795594 of unit cell:	Completed after 2 iterations at t[s]:   4851.16
	Linear fluid (dielectric constant: 78.4, screening length: 5.74355 Bohr) occupying 0.795594 of unit cell:	Completed after 0 iterations at t[s]:   4863.80
	FillingsUpdate:  mu: -0.171251800  nElectrons: 434.774425  magneticMoment: [ Abs: 0.01985  Tot: -0.01766 ]
	SubspaceRotationAdjust: set factor to 0.189
ElecMinimize: Iter:  42  G: -1881.720247691267787  |grad|_K:  5.813e-08  alpha:  2.814e-01  linmin:  1.339e-05  t[s]:   4879.00
	Linear fluid (dielectric constant: 78.4, screening length: 5.74355 Bohr) occupying 0.795594 of unit cell:	Completed after 0 iterations at t[s]:   4893.83
	Linear fluid (dielectric constant: 78.4, screening length: 5.74355 Bohr) occupying 0.795593 of unit cell:	Completed after 0 iterations at t[s]:   4907.78
	FillingsUpdate:  mu: -0.171251800  nElectrons: 434.773596  magneticMoment: [ Abs: 0.01880  Tot: -0.01674 ]
	SubspaceRotationAdjust: set factor to 0.262
ElecMinimize: Iter:  43  G: -1881.720248010237810  |grad|_K:  4.401e-08  alpha:  3.771e-01  linmin: -5.794e-05  t[s]:   4923.97
	Linear fluid (dielectric constant: 78.4, screening length: 5.74355 Bohr) occupying 0.795593 of unit cell:	Completed after 3 iterations at t[s]:   4937.02
	Linear fluid (dielectric constant: 78.4, screening length: 5.74355 Bohr) occupying 0.795593 of unit cell:	Completed after 0 iterations at t[s]:   4951.71
	FillingsUpdate:  mu: -0.171251800  nElectrons: 434.772303  magneticMoment: [ Abs: 0.01833  Tot: -0.01633 ]
	SubspaceRotationAdjust: set factor to 0.179
ElecMinimize: Iter:  44  G: -1881.720248087651726  |grad|_K:  6.928e-08  alpha:  2.079e-01  linmin:  4.796e-05  t[s]:   4971.20
	Linear fluid (dielectric constant: 78.4, screening length: 5.74355 Bohr) occupying 0.795592 of unit cell:	Completed after 2 iterations at t[s]:   4984.60
	Linear fluid (dielectric constant: 78.4, screening length: 5.74355 Bohr) occupying 0.795592 of unit cell:	Completed after 0 iterations at t[s]:   4997.75
	FillingsUpdate:  mu: -0.171251800  nElectrons: 434.773264  magneticMoment: [ Abs: 0.01756  Tot: -0.01566 ]
	SubspaceRotationAdjust: set factor to 0.25
ElecMinimize: Iter:  45  G: -1881.720248200287188  |grad|_K:  3.861e-08  alpha:  1.203e-01  linmin: -1.051e-05  t[s]:   5013.28
	Linear fluid (dielectric constant: 78.4, screening length: 5.74355 Bohr) occupying 0.795592 of unit cell:	Completed after 0 iterations at t[s]:   5027.38
ElecMinimize: 	Predicted alpha/alphaT>3.000000, increasing alphaT to 3.607542e-01.
	Linear fluid (dielectric constant: 78.4, screening length: 5.74355 Bohr) occupying 0.795592 of unit cell:	Completed after 2 iterations at t[s]:   5043.85
	Linear fluid (dielectric constant: 78.4, screening length: 5.74355 Bohr) occupying 0.795592 of unit cell:	Completed after 0 iterations at t[s]:   5057.44
	FillingsUpdate:  mu: -0.171251800  nElectrons: 434.775349  magneticMoment: [ Abs: 0.01697  Tot: -0.01513 ]
	SubspaceRotationAdjust: set factor to 0.209
ElecMinimize: Iter:  46  G: -1881.720248302721757  |grad|_K:  4.656e-08  alpha:  2.327e-01  linmin:  1.379e-04  t[s]:   5073.63
	Linear fluid (dielectric constant: 78.4, screening length: 5.74355 Bohr) occupying 0.795592 of unit cell:	Completed after 0 iterations at t[s]:   5087.39
	Linear fluid (dielectric constant: 78.4, screening length: 5.74355 Bohr) occupying 0.795592 of unit cell:	Completed after 0 iterations at t[s]:   5103.45
	FillingsUpdate:  mu: -0.171251800  nElectrons: 434.775264  magneticMoment: [ Abs: 0.01621  Tot: -0.01446 ]
	SubspaceRotationAdjust: set factor to 0.218
ElecMinimize: Iter:  47  G: -1881.720248359890547  |grad|_K:  3.856e-08  alpha:  1.700e-01  linmin: -2.515e-05  t[s]:   5119.53
	Linear fluid (dielectric constant: 78.4, screening length: 5.74355 Bohr) occupying 0.795592 of unit cell:	Completed after 2 iterations at t[s]:   5132.19
	Linear fluid (dielectric constant: 78.4, screening length: 5.74355 Bohr) occupying 0.795592 of unit cell:	Completed after 0 iterations at t[s]:   5146.14
	FillingsUpdate:  mu: -0.171251800  nElectrons: 434.774429  magneticMoment: [ Abs: 0.01589  Tot: -0.01418 ]
	SubspaceRotationAdjust: set factor to 0.166
ElecMinimize: Iter:  48  G: -1881.720248378673659  |grad|_K:  3.185e-08  alpha:  8.824e-02  linmin:  4.530e-05  t[s]:   5164.93
	Linear fluid (dielectric constant: 78.4, screening length: 5.74355 Bohr) occupying 0.795592 of unit cell:	Completed after 0 iterations at t[s]:   5177.06
ElecMinimize: 	Predicted alpha/alphaT>3.000000, increasing alphaT to 2.647340e-01.
	Linear fluid (dielectric constant: 78.4, screening length: 5.74355 Bohr) occupying 0.795591 of unit cell:	Completed after 0 iterations at t[s]:   5192.62
	Linear fluid (dielectric constant: 78.4, screening length: 5.74355 Bohr) occupying 0.795591 of unit cell:	Completed after 0 iterations at t[s]:   5207.16
	FillingsUpdate:  mu: -0.171251800  nElectrons: 434.774343  magneticMoment: [ Abs: 0.01497  Tot: -0.01336 ]
	SubspaceRotationAdjust: set factor to 0.208
ElecMinimize: Iter:  49  G: -1881.720248443689343  |grad|_K:  2.666e-08  alpha:  2.950e-01  linmin:  4.847e-08  t[s]:   5223.98
	Linear fluid (dielectric constant: 78.4, screening length: 5.74355 Bohr) occupying 0.795591 of unit cell:	Completed after 0 iterations at t[s]:   5237.22
	Linear fluid (dielectric constant: 78.4, screening length: 5.74355 Bohr) occupying 0.795591 of unit cell:	Completed after 0 iterations at t[s]:   5250.58
	FillingsUpdate:  mu: -0.171251800  nElectrons: 434.775585  magneticMoment: [ Abs: 0.01427  Tot: -0.01274 ]
	SubspaceRotationAdjust: set factor to 0.285
ElecMinimize: Iter:  50  G: -1881.720248488021070  |grad|_K:  2.218e-08  alpha:  2.662e-01  linmin: -7.088e-05  t[s]:   5266.30
	Linear fluid (dielectric constant: 78.4, screening length: 5.74355 Bohr) occupying 0.795590 of unit cell:	Completed after 2 iterations at t[s]:   5279.66
	Linear fluid (dielectric constant: 78.4, screening length: 5.74355 Bohr) occupying 0.795591 of unit cell:	Completed after 0 iterations at t[s]:   5296.54
ElecMinimize: 	Step increased G by 2.350157e-08, reducing alpha to 6.943406e-03.
	Linear fluid (dielectric constant: 78.4, screening length: 5.74355 Bohr) occupying 0.795591 of unit cell:	Completed after 0 iterations at t[s]:   5325.07
ElecMinimize: 	Step increased G by 1.215926e-08, reducing alpha to 6.943406e-04.
	Linear fluid (dielectric constant: 78.4, screening length: 5.74355 Bohr) occupying 0.795591 of unit cell:	Completed after 0 iterations at t[s]:   5357.49
ElecMinimize: 	Step increased G by 1.115154e-08, reducing alpha to 6.943406e-05.
ElecMinimize: 	Step failed to reduce G after 3 attempts. Quitting step.
ElecMinimize: 	Undoing step.
	Linear fluid (dielectric constant: 78.4, screening length: 5.74355 Bohr) occupying 0.795591 of unit cell:	Completed after 0 iterations at t[s]:   5383.86
ElecMinimize: 	Step failed: resetting search direction.
	FillingsUpdate:  mu: -0.171251800  nElectrons: 434.775588  magneticMoment: [ Abs: 0.01427  Tot: -0.01274 ]
	SubspaceRotationAdjust: set factor to 0.189
ElecMinimize: Iter:  51  G: -1881.720248476875668  |grad|_K:  4.870e-08  alpha:  6.943e-05
	Linear fluid (dielectric constant: 78.4, screening length: 5.74355 Bohr) occupying 0.795591 of unit cell:	Completed after 3 iterations at t[s]:   5415.26
	Linear fluid (dielectric constant: 78.4, screening length: 5.74355 Bohr) occupying 0.795591 of unit cell:	Completed after 2 iterations at t[s]:   5430.45
ElecMinimize: 	Step increased G by 1.188710e-09, reducing alpha to 8.568397e-03.
	Linear fluid (dielectric constant: 78.4, screening length: 5.74355 Bohr) occupying 0.795591 of unit cell:	Completed after 0 iterations at t[s]:   5459.70
	FillingsUpdate:  mu: -0.171251800  nElectrons: 434.775435  magneticMoment: [ Abs: 0.01426  Tot: -0.01274 ]
	SubspaceRotationAdjust: set factor to 0.0897
ElecMinimize: Iter:  52  G: -1881.720248503011135  |grad|_K:  3.049e-08  alpha:  8.568e-03  linmin:  1.340e-03  t[s]:   5478.71
	Linear fluid (dielectric constant: 78.4, screening length: 5.74355 Bohr) occupying 0.795591 of unit cell:	Completed after 0 iterations at t[s]:   5493.09
ElecMinimize: 	Predicted alpha/alphaT>3.000000, increasing alphaT to 2.570519e-02.
	Linear fluid (dielectric constant: 78.4, screening length: 5.74355 Bohr) occupying 0.795591 of unit cell:	Completed after 0 iterations at t[s]:   5506.85
ElecMinimize: 	Predicted alpha/alphaT>3.000000, increasing alphaT to 7.711557e-02.
	Linear fluid (dielectric constant: 78.4, screening length: 5.74355 Bohr) occupying 0.795591 of unit cell:	Completed after 0 iterations at t[s]:   5521.64
ElecMinimize: 	Predicted alpha/alphaT>3.000000, increasing alphaT to 2.313467e-01.
	Linear fluid (dielectric constant: 78.4, screening length: 5.74355 Bohr) occupying 0.795591 of unit cell:	Completed after 0 iterations at t[s]:   5537.95
	FillingsUpdate:  mu: -0.171251800  nElectrons: 434.775739  magneticMoment: [ Abs: 0.01394  Tot: -0.01245 ]
	SubspaceRotationAdjust: set factor to 0.0833
ElecMinimize: Iter:  53  G: -1881.720248570434023  |grad|_K:  2.145e-08  alpha:  4.295e-01  linmin:  1.067e-05  t[s]:   5553.99
	Linear fluid (dielectric constant: 78.4, screening length: 5.74355 Bohr) occupying 0.795591 of unit cell:	Completed after 2 iterations at t[s]:   5567.21
	Linear fluid (dielectric constant: 78.4, screening length: 5.74355 Bohr) occupying 0.795591 of unit cell:	Completed after 0 iterations at t[s]:   5585.85
ElecMinimize: 	Step increased G by 4.923186e-08, reducing alpha to 9.228290e-03.
	Linear fluid (dielectric constant: 78.4, screening length: 5.74355 Bohr) occupying 0.795591 of unit cell:	Completed after 0 iterations at t[s]:   5613.51
ElecMinimize: 	Step increased G by 4.195613e-08, reducing alpha to 9.228290e-04.
	Linear fluid (dielectric constant: 78.4, screening length: 5.74355 Bohr) occupying 0.795591 of unit cell:	Completed after 0 iterations at t[s]:   5639.80
ElecMinimize: 	Step increased G by 4.043136e-08, reducing alpha to 9.228290e-05.
ElecMinimize: 	Step failed to reduce G after 3 attempts. Quitting step.
ElecMinimize: 	Undoing step.
	Linear fluid (dielectric constant: 78.4, screening length: 5.74355 Bohr) occupying 0.795591 of unit cell:	Completed after 0 iterations at t[s]:   5666.44
ElecMinimize: 	Step failed: resetting search direction.
	FillingsUpdate:  mu: -0.171251800  nElectrons: 434.775742  magneticMoment: [ Abs: 0.01394  Tot: -0.01245 ]
	SubspaceRotationAdjust: set factor to 0.0619
ElecMinimize: Iter:  54  G: -1881.720248530022445  |grad|_K:  3.374e-08  alpha:  9.228e-05
	Linear fluid (dielectric constant: 78.4, screening length: 5.74355 Bohr) occupying 0.795591 of unit cell:	Completed after 3 iterations at t[s]:   5697.81
	Linear fluid (dielectric constant: 78.4, screening length: 5.74355 Bohr) occupying 0.795591 of unit cell:	Completed after 0 iterations at t[s]:   5712.20
	FillingsUpdate:  mu: -0.171251800  nElectrons: 434.774848  magneticMoment: [ Abs: 0.01390  Tot: -0.01242 ]
	SubspaceRotationAdjust: set factor to 0.0356
ElecMinimize: Iter:  55  G: -1881.720248569083196  |grad|_K:  2.490e-08  alpha:  1.677e-01  linmin:  3.709e-03  t[s]:   5728.02
	Linear fluid (dielectric constant: 78.4, screening length: 5.74355 Bohr) occupying 0.795591 of unit cell:	Completed after 0 iterations at t[s]:   5741.47
	Linear fluid (dielectric constant: 78.4, screening length: 5.74355 Bohr) occupying 0.795591 of unit cell:	Completed after 2 iterations at t[s]:   5756.81
ElecMinimize: 	Step increased G by 3.729610e-08, reducing alpha to 4.209803e-02.
	Linear fluid (dielectric constant: 78.4, screening length: 5.74355 Bohr) occupying 0.795591 of unit cell:	Completed after 0 iterations at t[s]:   5786.14
ElecMinimize: 	Step increased G by 3.330183e-08, reducing alpha to 4.209803e-03.
	Linear fluid (dielectric constant: 78.4, screening length: 5.74355 Bohr) occupying 0.795591 of unit cell:	Completed after 0 iterations at t[s]:   5812.43
ElecMinimize: 	Step increased G by 3.533410e-08, reducing alpha to 4.209803e-04.
ElecMinimize: 	Step failed to reduce G after 3 attempts. Quitting step.
ElecMinimize: 	Undoing step.
	Linear fluid (dielectric constant: 78.4, screening length: 5.74355 Bohr) occupying 0.795591 of unit cell:	Completed after 0 iterations at t[s]:   5841.21
ElecMinimize: 	Step failed: resetting search direction.
	FillingsUpdate:  mu: -0.171251800  nElectrons: 434.774849  magneticMoment: [ Abs: 0.01390  Tot: -0.01242 ]
	SubspaceRotationAdjust: set factor to 0.0528
ElecMinimize: Iter:  56  G: -1881.720248533729773  |grad|_K:  7.650e-09  alpha:  4.210e-04
	Linear fluid (dielectric constant: 78.4, screening length: 5.74355 Bohr) occupying 0.795591 of unit cell:	Completed after 0 iterations at t[s]:   5870.13
ElecMinimize: 	Predicted alpha/alphaT>3.000000, increasing alphaT to 5.032203e-01.
	Linear fluid (dielectric constant: 78.4, screening length: 5.74355 Bohr) occupying 0.795591 of unit cell:	Completed after 0 iterations at t[s]:   5887.30
	Linear fluid (dielectric constant: 78.4, screening length: 5.74355 Bohr) occupying 0.795591 of unit cell:	Completed after 0 iterations at t[s]:   5905.75
	FillingsUpdate:  mu: -0.171251800  nElectrons: 434.774923  magneticMoment: [ Abs: 0.01383  Tot: -0.01236 ]
	SubspaceRotationAdjust: set factor to 0.0588
ElecMinimize: Iter:  57  G: -1881.720248543449316  |grad|_K:  7.179e-09  alpha:  6.761e-01  linmin:  2.188e-06  t[s]:   5921.45
	Linear fluid (dielectric constant: 78.4, screening length: 5.74355 Bohr) occupying 0.795591 of unit cell:	Completed after 0 iterations at t[s]:   5934.85
	Linear fluid (dielectric constant: 78.4, screening length: 5.74355 Bohr) occupying 0.795591 of unit cell:	Completed after 0 iterations at t[s]:   5950.50
	FillingsUpdate:  mu: -0.171251800  nElectrons: 434.775145  magneticMoment: [ Abs: 0.01364  Tot: -0.01221 ]
	SubspaceRotationAdjust: set factor to 0.0711
ElecMinimize: Iter:  58  G: -1881.720248554311183  |grad|_K:  6.363e-09  alpha:  8.595e-01  linmin:  2.914e-06  t[s]:   5967.94
	Linear fluid (dielectric constant: 78.4, screening length: 5.74355 Bohr) occupying 0.795591 of unit cell:	Completed after 0 iterations at t[s]:   5980.53
	Linear fluid (dielectric constant: 78.4, screening length: 5.74355 Bohr) occupying 0.795591 of unit cell:	Completed after 0 iterations at t[s]:   5995.09
	FillingsUpdate:  mu: -0.171251800  nElectrons: 434.775359  magneticMoment: [ Abs: 0.01346  Tot: -0.01206 ]
	SubspaceRotationAdjust: set factor to 0.0936
ElecMinimize: Iter:  59  G: -1881.720248559774518  |grad|_K:  5.335e-09  alpha:  5.507e-01  linmin:  3.251e-07  t[s]:   6011.47
	Linear fluid (dielectric constant: 78.4, screening length: 5.74355 Bohr) occupying 0.795591 of unit cell:	Completed after 0 iterations at t[s]:   6025.90
	Linear fluid (dielectric constant: 78.4, screening length: 5.74355 Bohr) occupying 0.795591 of unit cell:	Completed after 0 iterations at t[s]:   6040.02
	FillingsUpdate:  mu: -0.171251800  nElectrons: 434.775847  magneticMoment: [ Abs: 0.01310  Tot: -0.01173 ]
	SubspaceRotationAdjust: set factor to 0.111
ElecMinimize: Iter:  60  G: -1881.720248566505006  |grad|_K:  7.152e-09  alpha:  9.545e-01  linmin: -1.232e-06  t[s]:   6056.97
ElecMinimize: Converged (|Delta G|<1.000000e-08 for 2 iters).
Setting wave functions to eigenvectors of Hamiltonian
Single-point solvation energy estimate, DeltaG = -0.380016115949957

# Ionic positions in lattice coordinates:
ion Ti   0.168712256391400   0.084318357052259   0.566364464145807 1
ion Ti   0.083397787081648   0.166718971225631   0.440828600300404 1
ion Ti   0.417666404791377   0.079999546369364   0.567808549074034 1
ion Ti   0.336828325676669   0.168338999219653   0.440123922106270 1
ion Ti   0.662437917450467   0.080043227221788   0.567859190526905 1
ion Ti   0.586230580271914   0.172322901726624   0.437902844110343 1
ion Ti   0.915737884101647   0.084334999877165   0.566405596206005 1
ion Ti   0.831608395482280   0.168342917833751   0.440184007594851 1
ion Ti   0.171338521362965   0.342489130978655   0.563759727541026 1
ion Ti   0.077424299324130   0.413595651904758   0.434310531977658 1
ion Ti   0.417675626948540   0.337521602640790   0.567794170325430 1
ion Ti   0.336315121452614   0.413540606091629   0.434292173450147 1
ion Ti   0.666660797730138   0.333281832394849   0.571413260277716 1
ion Ti   0.586266198806375   0.413761066441827   0.437898317546934 1
ion Ti   0.919977369636113   0.337562207553695   0.567777335975521 1
ion Ti   0.827634191174459   0.413801193612260   0.437928401858631 1
ion Ti   0.175372879379195   0.587619413959734   0.558934840863370 1
ion Ti   0.077410172657791   0.663771693660118   0.434308497414793 1
ion Ti   0.412398241744969   0.587593690388130   0.558933434952582 1
ion Ti   0.333384770952559   0.666627092618656   0.425927864731789 1
ion Ti   0.662434738251040   0.582302289401199   0.567846434450031 1
ion Ti   0.586480220147656   0.663714964968228   0.434333265411873 1
ion Ti   0.920031279588006   0.582338983096464   0.567826983955566 1
ion Ti   0.831633392006517   0.663174103535679   0.440225078634692 1
ion Ti   0.171352447326511   0.828707077464765   0.563780844531133 1
ion Ti   0.083392584336307   0.916589873883754   0.440856613243259 1
ion Ti   0.412390995155560   0.824640253776619   0.558946464197406 1
ion Ti   0.336309843899802   0.922617773959017   0.434313809721787 1
ion Ti   0.657461489463770   0.828687956001076   0.563810010917158 1
ion Ti   0.586475995299981   0.922627180429810   0.434321635921052 1
ion Ti   0.915735912008440   0.831340359683418   0.566404989280230 1
ion Ti   0.833248394493697   0.916594297488729   0.440885439062124 1
ion C   0.000039378661610  -0.000017618862048   0.504681508184009 1
ion C   0.251569045986651  -0.000236186520481   0.503105958753555 1
ion C   0.501274397351957   0.002419559430696   0.499611360018273 1
ion C   0.748296932693943  -0.000221842334224   0.503180516143457 1
ion C   0.000245029813501   0.251691056366736   0.503109710817595 1
ion C   0.251566041195139   0.251666847933288   0.503086048208763 1
ion C   0.500965043196250   0.250403784995937   0.506704324856862 1
ion C   0.749545566018654   0.250438435761974   0.506732655426806 1
ion C  -0.002404868214947   0.498749986129893   0.499579203232797 1
ion C   0.250199648165648   0.500210471192799   0.489977978400125 1
ion C   0.501284477110889   0.498698689288996   0.499595836046547 1
ion C   0.749569781416389   0.499026597909750   0.506767491310815 1
ion C   0.000255409322861   0.748464123813912   0.503148003698029 1
ion C   0.250172870597067   0.749833610872747   0.489986654715801 1
ion C   0.499813184187788   0.749839601244295   0.489984064655142 1
ion C   0.748320868576391   0.748460700125891   0.503176438149268 1
ion H   0.333390303210213   0.666605849467142   0.612459846273762 1


# Forces in Lattice coordinates:
force Ti  -0.000528622634609  -0.000557506905580   0.002254847206498 1
force Ti  -0.000059702377337   0.001849988237963  -0.003624143858873 1
force Ti   0.002794764230958  -0.001498824208334   0.002341190107519 1
force Ti   0.002446183391833   0.000039269389305   0.001442046632411 1
force Ti  -0.003062631337430   0.001382607311964   0.001649429944553 1
force Ti   0.000229511568428   0.000908006752478  -0.003361596038678 1
force Ti   0.001201886721677  -0.002068323305237   0.001922424750015 1
force Ti  -0.002435248708878   0.002296188321155   0.001589220682660 1
force Ti  -0.000173610474362  -0.000440333894956   0.007307052423791 1
force Ti   0.002255119756122  -0.001566926616451  -0.001800476955323 1
force Ti   0.000616223017396   0.001309234911805   0.001848778917682 1
force Ti  -0.002067554084307   0.001059051237442  -0.002359231556588 1
force Ti   0.000167575519667  -0.000095354123728   0.007803092029716 1
force Ti   0.001486990820602  -0.001082609905368  -0.003218254443746 1
force Ti  -0.000805022099915   0.002348542079375   0.001831618952998 1
force Ti  -0.001277191698728   0.000218521309104  -0.003227726284439 1
force Ti  -0.003888747352211  -0.000255819684825   0.010161405285066 1
force Ti   0.000519538148848   0.000718390479681  -0.002546215877720 1
force Ti   0.003729882859004  -0.003312024270989   0.009598538352849 1
force Ti   0.000366843156675   0.000385997177223  -0.006249943136655 1
force Ti  -0.001794525095233  -0.000306368914345   0.001489464274639 1
force Ti  -0.000617782876423   0.001134058663237  -0.002217255046099 1
force Ti   0.002121772893376  -0.002922163018051   0.001795845474268 1
force Ti  -0.000099738444899  -0.002553886982588   0.000914311999027 1
force Ti  -0.001120353514144   0.001010675387184   0.007498774502157 1
force Ti   0.002722865190150  -0.002241841753377  -0.003216119490461 1
force Ti   0.000117268530677   0.003140989505884   0.009045987655409 1
force Ti  -0.000754372651180  -0.001477600278518  -0.002899652882222 1
force Ti   0.001092908394127  -0.000128063844576   0.007672145067203 1
force Ti   0.000369953807994  -0.001318270650952  -0.002715106608382 1
force Ti  -0.000080543470035   0.001414937504321   0.002429309400525 1
force Ti  -0.002056144759893   0.000892732670609  -0.003115017008565 1
force C  -0.000851320541711   0.000600514304687  -0.001733539022394 1
force C  -0.001409848073887   0.000076971272088   0.003457299240260 1
force C   0.000847505259205  -0.001448673082880  -0.003766990260289 1
force C   0.001669667268349  -0.001269170017442   0.002915394750205 1
force C   0.000563008432999   0.000542516251233   0.003175062574358 1
force C  -0.000799472745497   0.000806990514844   0.003006974592213 1
force C  -0.001977109475099   0.000337235019475   0.003350645567217 1
force C   0.001901516197044  -0.001867663846512   0.003298216041830 1
force C   0.000613157644174   0.001099175028137  -0.003482561153673 1
force C  -0.000547437766623  -0.001323552097364   0.001522726426191 1
force C  -0.001466219576337   0.002254548310885  -0.004186453506731 1
force C  -0.000053780468138   0.001814120049696   0.003770602213271 1
force C   0.000742621319388   0.000339911975784   0.003364211885848 1
force C  -0.000598998056064   0.001606113852870   0.001134567857553 1
force C  -0.000131871198453   0.000020622306668   0.001865605930007 1
force C  -0.000533248647066   0.000231966513411   0.003165031909961 1
force H  -0.000068950757795   0.000098326996014  -0.002785578933961 1

# Energy components:
   A_diel =       -7.9876223582921035
   Eewald =    10539.1754214813099679
       EH =    11602.0605787091699312
     Eloc =   -24460.3335113368302700
      Enl =      188.0999799010068045
      Exc =     -316.4122620295891011
 Exc_core =       42.4434747854815981
       KE =      456.7126248911805533
  MuShift =        0.2123121164570684
-------------------------------------
     Etot =    -1956.0290038401060428
       TS =        0.1473912070068746
-------------------------------------
        F =    -1956.1763950471129192
      muN =      -74.4561464806078561
-------------------------------------
        G =    -1881.7202485665050062

IonicMinimize: Iter:   0  G: -1881.720248566505006  |grad|_K:  8.771e-05  t[s]:   6068.03
IonicMinimize: Converged (|grad|_K<1.000000e-04).

#--- Lowdin population analysis ---
# oxidation-state Ti +1.168 +1.138 +1.152 +1.117 +1.152 +1.101 +1.169 +1.116 +1.112 +1.161 +1.152 +1.161 +1.167 +1.101 +1.152 +1.101 +1.045 +1.161 +1.045 +1.210 +1.152 +1.160 +1.152 +1.116 +1.113 +1.138 +1.045 +1.160 +1.113 +1.160 +1.169 +1.138
# magnetic-moments Ti -0.000 -0.000 -0.000 -0.001 -0.000 -0.001 -0.000 -0.000 -0.001 -0.000 -0.000 -0.000 -0.000 -0.000 -0.000 -0.000 -0.001 -0.000 -0.000 -0.000 -0.000 -0.000 -0.000 -0.000 -0.001 -0.000 -0.001 -0.000 -0.000 -0.000 -0.000 -0.000
# oxidation-state C -1.083 -1.081 -1.085 -1.081 -1.081 -1.081 -1.073 -1.073 -1.085 -1.063 -1.085 -1.073 -1.081 -1.063 -1.063 -1.081
# magnetic-moments C +0.000 +0.000 +0.000 +0.000 +0.000 +0.000 +0.000 +0.000 +0.000 +0.000 +0.000 +0.000 +0.000 +0.000 +0.000 +0.000
# oxidation-state H -0.360
# magnetic-moments H +0.000


Dumping 'NbTe2.fillings' ... done
Dumping 'NbTe2.wfns' ... done
Dumping 'NbTe2.fluidState' ... done
Dumping 'NbTe2.ionpos' ... done
Dumping 'NbTe2.eigenvals' ... done
End date and time: Fri Jan 22 18:02:52 2021  (Duration: 0-1:41:16.70)
Done!
