
*************** JDFTx 1.5.0  ***************

Start date and time: Thu Jul 30 16:33:36 2020
Executable jdftx_gpu with command-line: -i Neutral.in -o Neutral.out
Running on hosts (process indices):  amax (0-5)
Divided in process groups (process indices):  0 (0)  1 (1)  2 (2)  3 (3)  4 (4)  5 (5)
gpuInit: Found compatible cuda device 0 'Tesla K80'
gpuInit: Found compatible cuda device 1 'Tesla K80'
gpuInit: Found compatible cuda device 2 'Tesla K80'
gpuInit: Found compatible cuda device 3 'Tesla K80'
gpuInit: Found compatible cuda device 4 'Tesla K80'
gpuInit: Found compatible cuda device 5 'Tesla K80'
gpuInit: Selected device 0
Resource initialization completed at t[s]:      7.19
Run totals: 6 processes, 24 threads, 6 GPUs


Input parsed successfully to the following command list (including defaults):

basis kpoint-dependent
cache-projectors no
coords-type Lattice
core-overlap-check none
coulomb-interaction Slab 001
coulomb-truncation-embed 0 0 0.5
davidson-band-ratio 1.1
dump End State
dump-name NbTe2.$VAR
elec-cutoff 20 100
elec-eigen-algo Davidson
elec-ex-corr gga-PBE
elec-smearing Gauss 0.0073499
electronic-minimize  \
	dirUpdateScheme      FletcherReeves \
	linminMethod         DirUpdateRecommended \
	nIterations          100 \
	history              15 \
	knormThreshold       0 \
	energyDiffThreshold  1e-08 \
	nEnergyDiff          2 \
	alphaTstart          1 \
	alphaTmin            1e-10 \
	updateTestStepSize   yes \
	alphaTreduceFactor   0.1 \
	alphaTincreaseFactor 3 \
	nAlphaAdjustMax      3 \
	wolfeEnergy          0.0001 \
	wolfeGradient        0.9 \
	fdTest               no
electronic-scf  \
	nIterations	500 \
	energyDiffThreshold	1e-08 \
	residualThreshold	1e-07 \
	mixFraction	0.5 \
	qMetric	0.8 \
	history	10 \
	nEigSteps	2 \
	eigDiffThreshold	1e-08 \
	mixedVariable	Density \
	qKerker	0.8 \
	qKappa	-1 \
	verbose	no \
	mixFractionMag	1.5
exchange-regularization WignerSeitzTruncated
fluid LinearPCM 298.000000 1.013250
fluid-anion F- 1 MeanFieldLJ \
	epsBulk 1 \
	pMol 0 \
	epsInf 1 \
	Pvap 0 \
	sigmaBulk 0 \
	Rvdw 2.24877 \
	Res 0 \
	tauNuc 343133
fluid-cation Na+ 1 MeanFieldLJ \
	epsBulk 1 \
	pMol 0 \
	epsInf 1 \
	Pvap 0 \
	sigmaBulk 0 \
	Rvdw 2.19208 \
	Res 0 \
	tauNuc 343133
fluid-ex-corr lda-TF lda-PZ
fluid-gummel-loop 10 1.000000e-05
fluid-minimize  \
	dirUpdateScheme      PolakRibiere \
	linminMethod         DirUpdateRecommended \
	nIterations          400 \
	history              15 \
	knormThreshold       1e-11 \
	energyDiffThreshold  0 \
	nEnergyDiff          2 \
	alphaTstart          1 \
	alphaTmin            1e-10 \
	updateTestStepSize   yes \
	alphaTreduceFactor   0.1 \
	alphaTincreaseFactor 3 \
	nAlphaAdjustMax      6 \
	wolfeEnergy          0.0001 \
	wolfeGradient        0.9 \
	fdTest               no
fluid-solvent H2O 55.338 ScalarEOS \
	epsBulk 78.4 \
	pMol 0.92466 \
	epsInf 1.77 \
	Pvap 1.06736e-10 \
	sigmaBulk 4.62e-05 \
	Rvdw 2.61727 \
	Res 1.42 \
	tauNuc 343133 \
	poleEl 15 7 1
forces-output-coords Positions
initial-state NbTe2.$VAR
ion Li   0.333999930863447   0.334499685284467   0.497707429953407 0
ion Li   0.831590507058168   0.334283409219119   0.498484362126442 0
ion Li   0.334657564649104   0.831043976612993   0.498168497957380 0
ion Li   0.833366377293396   0.833287519990771   0.498712247494613 0
ion Ni   0.167135976856994   0.165767513206287   0.498654374917615 0
ion Ni   0.666534886220947   0.167190422763291   0.498662391815860 0
ion Ni   0.166943772957093   0.666381528862130   0.498731424727690 0
ion Ni   0.666517065896414   0.666723579034103   0.498518424186501 0
ion P  -0.002342977355621   0.502378758286854   0.438589846621640 0
ion P  -0.000189624245169   0.502184915448700   0.558273644453774 0
ion P   0.500083632504714   0.499917077183165   0.498207448132237 0
ion P   0.501935166328370  -0.002171216278450   0.557911674867947 0
ion P   0.000682700565857  -0.002762834879629   0.439296578232414 0
ion P  -0.001909543073239  -0.000543082785519   0.558841968237891 0
ion P   0.502467999266034  -0.000229191041177   0.438356183112401 0
ion S   0.016982310227966   0.324600913339834   0.585667651463139 0
ion S   0.323280345799697   0.159081954421856   0.584422850660488 0
ion S   0.018464719410322   0.158012608141325   0.412290887680008 0
ion S   0.157534762537651   0.324877574629722   0.410859482608816 0
ion S   0.323998889416408   0.017483417289293   0.410941790247117 0
ion S   0.159467629234941   0.016591802866656   0.585877383133040 0
ion S   0.518614152046680   0.338509916695553   0.568923504477935 0
ion S   0.818643677973330   0.165245102096427   0.583168172121696 0
ion S   0.516576555708803   0.165238413121412   0.413902274909477 0
ion S   0.643301557561234   0.338193333467462   0.427725362879323 0
ion S   0.823586520010163   0.014958794811554   0.411136568962391 0
ion S   0.661406101536330   0.015458208532529   0.586143211461370 0
ion S   0.014399533382588   0.823314301659302   0.586366141600067 0
ion S   0.338819573855083   0.642655902283965   0.569132853429300 0
ion S   0.014379706917836   0.662159232929015   0.411176069496638 0
ion S   0.165796881708685   0.818176037126068   0.414349368142423 0
ion S   0.337782797573434   0.518816368722332   0.427688808588499 0
ion S   0.165956978117009   0.516298546501034   0.582914412918060 0
ion S   0.515663270976261   0.818786474794797   0.582819779456368 0
ion S   0.823304223817907   0.661993615341249   0.585953010614387 0
ion S   0.518676085964042   0.642962763604142   0.427553796478842 0
ion S   0.662131720156915   0.823588010345055   0.410832204901996 0
ion S   0.817223063450072   0.516802660432892   0.414047592985254 0
ion S   0.643225079830126   0.518823033939475   0.568990340945557 0
ion-species GBRV/$ID_pbe.uspp
ion-width Ecut
ionic-minimize  \
	dirUpdateScheme      L-BFGS \
	linminMethod         DirUpdateRecommended \
	nIterations          0 \
	history              15 \
	knormThreshold       0.0001 \
	energyDiffThreshold  1e-06 \
	nEnergyDiff          2 \
	alphaTstart          1 \
	alphaTmin            1e-10 \
	updateTestStepSize   yes \
	alphaTreduceFactor   0.1 \
	alphaTincreaseFactor 3 \
	nAlphaAdjustMax      3 \
	wolfeEnergy          0.0001 \
	wolfeGradient        0.9 \
	fdTest               no
kpoint   0.000000000000   0.000000000000   0.000000000000  1.00000000000000
kpoint-folding 3 3 1 
latt-move-scale 1 1 1
latt-scale 1 1 1 
lattice Triclinic 21.9941 22.0864 34.3361 90 90 60.1379
lattice-minimize  \
	dirUpdateScheme      L-BFGS \
	linminMethod         DirUpdateRecommended \
	nIterations          0 \
	history              15 \
	knormThreshold       0 \
	energyDiffThreshold  1e-06 \
	nEnergyDiff          2 \
	alphaTstart          1 \
	alphaTmin            1e-10 \
	updateTestStepSize   yes \
	alphaTreduceFactor   0.1 \
	alphaTincreaseFactor 3 \
	nAlphaAdjustMax      3 \
	wolfeEnergy          0.0001 \
	wolfeGradient        0.9 \
	fdTest               no
lcao-params -1 1e-06 0.0073499
pcm-variant CANDLE
spintype no-spin
subspace-rotation-factor 1 yes
symmetries automatic
symmetry-threshold 0.0001



---------- Setting up symmetries ----------

Found 8 point-group symmetries of the bravais lattice
Found 1 space-group symmetries with basis
Applied RMS atom displacement 0 bohrs to make symmetries exact.

---------- Initializing the Grid ----------
R = 
[    21.9941    10.9971          0  ]
[          0    19.1539          0  ]
[          0          0    34.3361  ]
unit cell volume = 14464.9
G =
[   0.285675  -0.164019          0  ]
[          0   0.328037          0  ]
[          0          0    0.18299  ]
Minimum fftbox size, Smin = [  100  100  156  ]
Chosen fftbox size, S = [  100  100  160  ]

---------- Initializing tighter grid for wavefunction operations ----------
R = 
[    21.9941    10.9971          0  ]
[          0    19.1539          0  ]
[          0          0    34.3361  ]
unit cell volume = 14464.9
G =
[   0.285675  -0.164019          0  ]
[          0   0.328037          0  ]
[          0          0    0.18299  ]
Minimum fftbox size, Smin = [  92  92  140  ]
Chosen fftbox size, S = [  96  96  140  ]

---------- Exchange Correlation functional ----------
Initalized PBE GGA exchange.
Initalized PBE GGA correlation.

---------- Setting up pseudopotentials ----------
Width of ionic core gaussian charges (only for fluid interactions / plotting) set to 0.397384

Reading pseudopotential file '/home/guoxy/vasp/jdftx-1.5.0/build/pseudopotentials/GBRV/li_pbe.uspp':
  Title: Li.  Created by USPP 7.3.6 on 8-4-15
  Reference state energy: -7.100502.  3 valence electrons in orbitals:
    |100>  occupation: 2  eigenvalue: -2.033252
    |200>  occupation: 0.55  eigenvalue: -0.187138
    |210>  occupation: 0  eigenvalue: -0.114272
  lMax: 1  lLocal: 2  QijEcut: 6
  5 projectors sampled on a log grid with 541 points:
    l: 0  eig: -2.033252  rCut: 1.3
    l: 0  eig: -0.187138  rCut: 1.3
    l: 0  eig: 1.000000  rCut: 1.3
    l: 1  eig: -0.114273  rCut: 2.001
    l: 1  eig: 1.000000  rCut: 2.001
  Transforming local potential to a uniform radial grid of dG=0.02 with 1605 points.
  Transforming nonlocal projectors to a uniform radial grid of dG=0.02 with 432 points.
  Transforming density augmentations to a uniform radial grid of dG=0.02 with 1605 points.
  Transforming atomic orbitals to a uniform radial grid of dG=0.02 with 432 points.
  Core radius for overlap checks: 2.00 bohrs.

Reading pseudopotential file '/home/guoxy/vasp/jdftx-1.5.0/build/pseudopotentials/GBRV/ni_pbe.uspp':
  Title: Ni.  Created by USPP 7.3.6 on 1-4-15
  Reference state energy: -170.398381.  18 valence electrons in orbitals:
    |300>  occupation: 2  eigenvalue: -4.804705
    |310>  occupation: 6  eigenvalue: -3.347751
    |320>  occupation: 8  eigenvalue: -1.042415
    |400>  occupation: 0  eigenvalue: -0.795539
    |410>  occupation: 0  eigenvalue: -0.551375
  lMax: 2  lLocal: 3  QijEcut: 6.5
  6 projectors sampled on a log grid with 611 points:
    l: 0  eig: -4.804708  rCut: 1.44
    l: 0  eig: -0.795541  rCut: 1.44
    l: 1  eig: -3.347753  rCut: 1.55
    l: 1  eig: 0.500000  rCut: 1.55
    l: 2  eig: -1.042418  rCut: 1.5
    l: 2  eig: -0.450000  rCut: 1.5
  Partial core density with radius 0.65
  Transforming core density to a uniform radial grid of dG=0.02 with 1605 points.
  Transforming local potential to a uniform radial grid of dG=0.02 with 1605 points.
  Transforming nonlocal projectors to a uniform radial grid of dG=0.02 with 432 points.
  Transforming density augmentations to a uniform radial grid of dG=0.02 with 1605 points.
  Transforming atomic orbitals to a uniform radial grid of dG=0.02 with 432 points.
  Core radius for overlap checks: 1.55 bohrs.

Reading pseudopotential file '/home/guoxy/vasp/jdftx-1.5.0/build/pseudopotentials/GBRV/p_pbe.uspp':
  Title: P.  Created by USPP 7.3.6 on 11-6-15
  Reference state energy: -7.561951.  5 valence electrons in orbitals:
    |300>  occupation: 2  eigenvalue: -0.513368
    |310>  occupation: 3  eigenvalue: -0.202371
  lMax: 2  lLocal: 3  QijEcut: 5
  6 projectors sampled on a log grid with 631 points:
    l: 0  eig: -0.513363  rCut: 1.5
    l: 0  eig: 0.500000  rCut: 1.5
    l: 1  eig: -0.202372  rCut: 1.5
    l: 1  eig: 1.000000  rCut: 1.5
    l: 2  eig: -0.500000  rCut: 1.5
    l: 2  eig: 1.500000  rCut: 1.5
  Partial core density with radius 1.35
  Transforming core density to a uniform radial grid of dG=0.02 with 1605 points.
  Transforming local potential to a uniform radial grid of dG=0.02 with 1605 points.
  Transforming nonlocal projectors to a uniform radial grid of dG=0.02 with 432 points.
  Transforming density augmentations to a uniform radial grid of dG=0.02 with 1605 points.
  Transforming atomic orbitals to a uniform radial grid of dG=0.02 with 432 points.
  Core radius for overlap checks: 1.50 bohrs.

Reading pseudopotential file '/home/guoxy/vasp/jdftx-1.5.0/build/pseudopotentials/GBRV/s_pbe.uspp':
  Title: S.  Created by USPP 7.3.6 on 1-4-15
  Reference state energy: -11.898476.  6 valence electrons in orbitals:
    |300>  occupation: 2  eigenvalue: -0.634167
    |310>  occupation: 4  eigenvalue: -0.257568
  lMax: 2  lLocal: 3  QijEcut: 6
  6 projectors sampled on a log grid with 635 points:
    l: 0  eig: -0.634161  rCut: 1.5
    l: 0  eig: 1.500000  rCut: 1.5
    l: 1  eig: -0.257567  rCut: 1.5
    l: 1  eig: 1.500000  rCut: 1.5
    l: 2  eig: -1.000000  rCut: 1.5
    l: 2  eig: 1.500000  rCut: 1.5
  Partial core density with radius 1.15
  Transforming core density to a uniform radial grid of dG=0.02 with 1605 points.
  Transforming local potential to a uniform radial grid of dG=0.02 with 1605 points.
  Transforming nonlocal projectors to a uniform radial grid of dG=0.02 with 432 points.
  Transforming density augmentations to a uniform radial grid of dG=0.02 with 1605 points.
  Transforming atomic orbitals to a uniform radial grid of dG=0.02 with 432 points.
  Core radius for overlap checks: 1.50 bohrs.

Initialized 4 species with 39 total atoms.

Folded 1 k-points by 3x3x1 to 9 k-points.

---------- Setting up k-points, bands, fillings ----------
Adding inversion symmetry to k-mesh for non-inversion-symmetric unit cell.
Reduced to 5 k-points under symmetry. 
Computing the number of bands and number of electrons
Calculating initial fillings.
nElectrons: 263.000000   nBands: 196   nStates: 5

----- Setting up reduced wavefunction bases (one per k-point) -----
average nbasis = 61788.111 , ideal nbasis = 61795.097

---------- Setting up coulomb interaction ----------
Fluid mode embedding: using embedded box, but periodic Coulomb kernel.
(Fluid response is responsible for (approximate) separation between periodic images.)
Setting up double-sized grid for truncated Coulomb potentials:
R = 
[    21.9941    10.9971          0  ]
[          0    19.1539          0  ]
[          0          0    68.6723  ]
unit cell volume = 28929.8
G =
[   0.285675  -0.164019          0  ]
[          0   0.328037          0  ]
[          0          0  0.0914952  ]
Chosen fftbox size, S = [  100  100  320  ]
Integer grid location selected as the embedding center:
   Grid: [  0  0  80  ]
   Lattice: [  0  0  0.5  ]
   Cartesian: [  0  0  17.1681  ]
Constructing Wigner-Seitz cell: 8 faces (6 quadrilaterals, 2 hexagons)
Range-separation parameter for embedded mesh potentials due to point charges: 0.592887 bohrs.

Initializing van der Waals corrections
	NOTE: vdW corrections apply only for interactions with fluid.
	Li:  C6:   27.93 Eh-a0^6  R0: 1.559 a0
	Ni:  C6:  187.33 Eh-a0^6  R0: 2.952 a0
	 P:  C6:  135.99 Eh-a0^6  R0: 3.222 a0
	 S:  C6:   96.61 Eh-a0^6  R0: 3.180 a0

---------- Setting up ewald sum ----------
Optimum gaussian width for ewald sums = 6.650398 bohr.
Real space sum over 605 unit cells with max indices [  5  5  2  ]
Reciprocal space sum over 6825 terms with max indices [  6  7  17  ]

---------- Allocating electronic variables ----------
Initializing wave functions:  linear combination of atomic orbitals
Li pseudo-atom occupations:   s ( 2 1 )  p ( 0 )
Ni pseudo-atom occupations:   s ( 2 0 )  p ( 6 0 )  d ( 10 )
P pseudo-atom occupations:   s ( 2 )  p ( 3 )
S pseudo-atom occupations:   s ( 2 )  p ( 4 )
	FillingsUpdate:  mu: -0.376567995  nElectrons: 263.000000
LCAOMinimize: Iter:   0  F: -888.9823746022208297  |grad|_K:  2.879e-02  alpha:  1.000e+00
	FillingsUpdate:  mu: +1.139069910  nElectrons: 263.000000
LCAOMinimize: Iter:   1  F: -943.7568263005074414  |grad|_K:  3.908e-02  alpha:  6.555e-01  linmin:  1.378e-02  cgtest: -7.560e-01  t[s]:     46.98
	FillingsUpdate:  mu: +0.681174640  nElectrons: 263.000000
LCAOMinimize: Iter:   2  F: -943.8759955974552440  |grad|_K:  2.065e-02  alpha:  2.306e-01  linmin:  1.674e-02  cgtest: -5.298e-01  t[s]:     59.83
LCAOMinimize: 	Predicted alpha/alphaT>3.000000, increasing alphaT to 6.918895e-01.
	FillingsUpdate:  mu: +0.597501375  nElectrons: 263.000000
LCAOMinimize: Iter:   3  F: -954.9132610231980607  |grad|_K:  2.930e-02  alpha:  3.767e-01  linmin: -3.455e-04  cgtest: -3.024e-01  t[s]:     73.97
	FillingsUpdate:  mu: +0.481031285  nElectrons: 263.000000
LCAOMinimize: Iter:   4  F: -963.5452505564832109  |grad|_K:  3.849e-02  alpha:  1.752e-01  linmin: -2.255e-02  cgtest: -4.215e-01  t[s]:     96.30
	FillingsUpdate:  mu: +0.376645037  nElectrons: 263.000000
LCAOMinimize: Iter:   5  F: -972.3080029215290097  |grad|_K:  4.565e-02  alpha:  2.096e-02  linmin:  6.724e-03  cgtest:  7.519e-01  t[s]:    123.78
LCAOMinimize: 	Predicted alpha/alphaT>3.000000, increasing alphaT to 6.287061e-02.
	FillingsUpdate:  mu: -0.029926002  nElectrons: 263.000000
LCAOMinimize: Iter:   6  F: -981.5489128071120604  |grad|_K:  2.154e-02  alpha:  6.462e-02  linmin:  1.512e-02  cgtest:  8.194e-01  t[s]:    160.48
LCAOMinimize: Encountered beta<0, resetting CG.
LCAOMinimize: 	Predicted alpha/alphaT>3.000000, increasing alphaT to 1.938667e-01.
	FillingsUpdate:  mu: +0.025851909  nElectrons: 263.000000
LCAOMinimize: Iter:   7  F: -994.1965341879322295  |grad|_K:  1.957e-02  alpha:  2.888e-01  linmin:  4.894e-03  cgtest: -1.602e-01  t[s]:    197.54
	FillingsUpdate:  mu: -0.001737129  nElectrons: 263.000000
LCAOMinimize: Iter:   8  F: -995.6885811855247539  |grad|_K:  1.497e-02  alpha:  2.684e-02  linmin: -5.203e-02  cgtest:  1.119e+00  t[s]:    224.03
LCAOMinimize: Encountered beta<0, resetting CG.
LCAOMinimize: 	Predicted alpha/alphaT>3.000000, increasing alphaT to 8.051893e-02.
	FillingsUpdate:  mu: +0.079184675  nElectrons: 263.000000
LCAOMinimize: Iter:   9  F: -997.1483395153035190  |grad|_K:  2.012e-02  alpha:  1.800e-01  linmin:  5.208e-02  cgtest: -5.030e-01  t[s]:    260.72
LCAOMinimize: 	Bad step direction: g.d > 0.
LCAOMinimize: 	Undoing step.
LCAOMinimize: 	Step failed: resetting search direction.
	FillingsUpdate:  mu: +0.079184675  nElectrons: 263.000000
LCAOMinimize: Iter:  10  F: -997.1483395153035190  |grad|_K:  2.012e-02  alpha:  0.000e+00
	FillingsUpdate:  mu: -0.008653044  nElectrons: 263.000000
LCAOMinimize: Iter:  11  F: -1001.8800518167072369  |grad|_K:  1.649e-02  alpha:  1.295e-01  linmin: -3.920e-02  cgtest: -4.805e-01  t[s]:    306.44
	FillingsUpdate:  mu: -0.050620378  nElectrons: 263.000000
LCAOMinimize: Iter:  12  F: -1002.2814474137956040  |grad|_K:  1.540e-02  alpha:  6.047e-03  linmin: -1.421e-01  cgtest:  9.704e-01  t[s]:    334.69
LCAOMinimize: Encountered beta<0, resetting CG.
LCAOMinimize: 	Predicted alpha/alphaT>3.000000, increasing alphaT to 1.814147e-02.
LCAOMinimize: 	Predicted alpha/alphaT>3.000000, increasing alphaT to 5.442440e-02.
	FillingsUpdate:  mu: -0.221261596  nElectrons: 263.000000
LCAOMinimize: Iter:  13  F: -1003.6133470182772953  |grad|_K:  1.990e-02  alpha:  9.636e-02  linmin:  2.051e-01  cgtest: -1.829e-01  t[s]:    377.41
LCAOMinimize: 	Bad step direction: g.d > 0.
LCAOMinimize: 	Undoing step.
LCAOMinimize: 	Step failed: resetting search direction.
	FillingsUpdate:  mu: -0.221261596  nElectrons: 263.000000
LCAOMinimize: Iter:  14  F: -1003.6133470182772953  |grad|_K:  1.990e-02  alpha:  0.000e+00
	FillingsUpdate:  mu: -0.228688997  nElectrons: 263.000000
LCAOMinimize: Iter:  15  F: -1004.3152140822380716  |grad|_K:  7.952e-03  alpha:  4.635e-02  linmin:  1.092e-01  cgtest: -9.084e-01  t[s]:    420.01
	FillingsUpdate:  mu: -0.168809444  nElectrons: 263.000000
LCAOMinimize: Iter:  16  F: -1004.5905469462962856  |grad|_K:  6.789e-03  alpha:  8.502e-02  linmin: -1.502e-02  cgtest:  7.747e-01  t[s]:    446.39
	FillingsUpdate:  mu: -0.169755900  nElectrons: 263.000000
LCAOMinimize: Iter:  17  F: -1004.8589169210442833  |grad|_K:  3.573e-03  alpha:  5.463e-02  linmin:  2.796e-03  cgtest:  2.629e-02  t[s]:    468.60
LCAOMinimize: 	Predicted alpha/alphaT>3.000000, increasing alphaT to 1.638954e-01.
	FillingsUpdate:  mu: -0.217217597  nElectrons: 263.000000
LCAOMinimize: Iter:  18  F: -1005.0929987564196608  |grad|_K:  4.061e-03  alpha:  1.896e-01  linmin: -1.037e-03  cgtest: -9.520e-02  t[s]:    490.46
	FillingsUpdate:  mu: -0.161163782  nElectrons: 263.000000
LCAOMinimize: Iter:  19  F: -1005.3819238843883568  |grad|_K:  1.018e-03  alpha:  1.739e-01  linmin:  7.374e-02  cgtest: -7.798e-01  t[s]:    504.13
	FillingsUpdate:  mu: -0.160087928  nElectrons: 263.000000
LCAOMinimize: Iter:  20  F: -1005.3831145163626388  |grad|_K:  8.063e-04  alpha:  2.792e-02  linmin: -1.796e-03  cgtest:  8.885e-01  t[s]:    516.53
LCAOMinimize: Encountered beta<0, resetting CG.
LCAOMinimize: 	Predicted alpha/alphaT>3.000000, increasing alphaT to 8.374737e-02.
	FillingsUpdate:  mu: -0.175604751  nElectrons: 263.000000
LCAOMinimize: Iter:  21  F: -1005.3887355996380393  |grad|_K:  4.446e-04  alpha:  8.911e-02  linmin: -3.017e-04  cgtest:  9.630e-03  t[s]:    537.44
	FillingsUpdate:  mu: -0.181131304  nElectrons: 263.000000
LCAOMinimize: Iter:  22  F: -1005.3907663547885249  |grad|_K:  5.088e-04  alpha:  1.057e-01  linmin: -1.190e-03  cgtest: -1.151e-02  t[s]:    560.43
	FillingsUpdate:  mu: -0.175009406  nElectrons: 263.000000
LCAOMinimize: Iter:  23  F: -1005.3933605825443465  |grad|_K:  1.881e-04  alpha:  1.026e-01  linmin:  1.009e-03  cgtest: -6.844e-02  t[s]:    585.19
	FillingsUpdate:  mu: -0.175515771  nElectrons: 263.000000
LCAOMinimize: Iter:  24  F: -1005.3937027538510165  |grad|_K:  1.647e-04  alpha:  9.992e-02  linmin:  4.310e-04  cgtest:  7.630e-03  t[s]:    609.50
	FillingsUpdate:  mu: -0.176368305  nElectrons: 263.000000
LCAOMinimize: Iter:  25  F: -1005.3941387341809559  |grad|_K:  7.542e-05  alpha:  1.660e-01  linmin:  4.015e-04  cgtest: -1.192e-02  t[s]:    633.84
	FillingsUpdate:  mu: -0.176386392  nElectrons: 263.000000
LCAOMinimize: Iter:  26  F: -1005.3942263134983932  |grad|_K:  5.677e-05  alpha:  1.589e-01  linmin:  2.714e-04  cgtest:  1.964e-03  t[s]:    659.33
	FillingsUpdate:  mu: -0.175828388  nElectrons: 263.000000
LCAOMinimize: Iter:  27  F: -1005.3942417544046748  |grad|_K:  3.135e-05  alpha:  4.939e-02  linmin: -2.641e-04  cgtest:  4.724e-03  t[s]:    682.70
LCAOMinimize: 	Predicted alpha/alphaT>3.000000, increasing alphaT to 1.481585e-01.
	FillingsUpdate:  mu: -0.176206413  nElectrons: 263.000000
LCAOMinimize: Iter:  28  F: -1005.3942592610665088  |grad|_K:  1.633e-05  alpha:  1.835e-01  linmin: -4.040e-04  cgtest: -2.252e-03  t[s]:    710.13
	FillingsUpdate:  mu: -0.175862245  nElectrons: 263.000000
LCAOMinimize: Iter:  29  F: -1005.3942621104599766  |grad|_K:  1.029e-05  alpha:  1.100e-01  linmin: -5.337e-05  cgtest: -2.167e-04  t[s]:    731.80
	FillingsUpdate:  mu: -0.175905459  nElectrons: 263.000000
LCAOMinimize: Iter:  30  F: -1005.3942640842675473  |grad|_K:  1.360e-05  alpha:  1.922e-01  linmin:  3.877e-05  cgtest:  4.803e-04  t[s]:    754.98
LCAOMinimize: None of the convergence criteria satisfied after 30 iterations.
----- createFluidSolver() ----- (Fluid-side solver setup)
   Initializing fluid molecule 'H2O'
     Initializing site 'O'
       Electron density: proportional to exp(-r/0.36935)*erfc((r-0.51523)/0.36823) with norm 6.826
       Charge density: gaussian nuclear width 0.478731 with net site charge 0.826
       Polarizability: cuspless exponential with width 0.32 and norm 3.73
       Hard sphere radius: 2.57003 bohrs
       Positions in reference frame:
         [ +0.000000 +0.000000 +0.000000 ]
     Initializing site 'H'
       Electron density: proportional to exp(-r/0.34641)*erfc((r-0)/0.390882) with norm 0.587
       Charge density: gaussian nuclear width 0.377945 with net site charge -0.413
       Polarizability: cuspless exponential with width 0.39 and norm 3.3
       Positions in reference frame:
         [ +0.000000 -1.441945 +1.122523 ]
         [ +0.000000 +1.441945 +1.122523 ]
     Net charge: 0   dipole magnitude: 0.927204
     Initializing spherical shell mfKernel with radius 2.61727 Bohr
     deltaS corrections:
       site 'O': -7.54299
       site 'H': -6.83917
   Initializing fluid molecule 'Na+'
     Initializing site 'Na'
       Electron density: proportional to exp(-r/0.19682)*erfc((r-0.71491)/0.41314) with norm 8.1383
       Charge density: gaussian nuclear width 0.365347 with net site charge -1
       Hard sphere radius: 1.86327 bohrs
       Positions in reference frame:
         [ +0.000000 +0.000000 +0.000000 ]
     Net charge: -1   dipole magnitude: 0
     Initializing gaussian mfKernel with width: 1.55004 Bohr
     deltaS corrections:
       site 'Na': -22.3555
   Initializing fluid molecule 'F-'
     Initializing site 'F'
       Electron density: proportional to exp(-r/0.38886)*erfc((r-0)/0.438782) with norm 8
       Charge density: gaussian nuclear width 0.374796 with net site charge 1
       Hard sphere radius: 2.39995 bohrs
       Positions in reference frame:
         [ +0.000000 +0.000000 +0.000000 ]
     Net charge: 1   dipole magnitude: 0
     Initializing gaussian mfKernel with width: 1.59012 Bohr
     deltaS corrections:
       site 'F': -9.04335

Correction to mu due to finite nuclear width = -0.00902008
   Cavity determined by nc: 0.00142 and sigma: 0.707107
   Nonlocal vdW cavity from gaussian model electron density with norm = 8 and sigma = 0.993594 bohr
   Charge asymmetry in cavity with sensitivity pCavity = 36.5 e-bohr/Eh
   Electrostatic cavity expanded by eta = 1.46 bohrs
   Weighted density cavitation model constrained by Nbulk: 0.0049383 bohr^-3, Pvap: 3.14029 kPa, Rvdw: 2.61727 bohr and sigmaBulk: 4.62e-05 Eh/bohr^2 at T: 298 K.
   Weighted density dispersion model using vdW pair potentials with single solvent site with sqrtC6eff: 0.77 SI.


---- Citations for features of the code used in this run ----

   Software package:
      R. Sundararaman, K. Letchworth-Weaver, K.A. Schwarz, D. Gunceler, Y. Ozhabes and T.A. Arias, 'JDFTx: software for joint density-functional theory', SoftwareX 6, 278 (2017)

   gga-PBE exchange-correlation functional:
      J.P. Perdew, K. Burke and M. Ernzerhof, Phys. Rev. Lett. 77, 3865 (1996)

   Pseudopotentials:
      KF Garrity, JW Bennett, KM Rabe and D Vanderbilt, Comput. Mater. Sci. 81, 446 (2014)

   Truncated Coulomb potentials:
      R. Sundararaman and T.A. Arias, Phys. Rev. B 87, 165122 (2013)

   Van der Waals correction pair-potentials:
      S. Grimme, J. Comput. Chem. 27, 1787 (2006)

   Charge-asymmetric nonlocally-determined local-electric (CANDLE) solvation model:
      R. Sundararaman and W.A. Goddard III, J. Chem. Phys. 142, 064107 (2015)

This list may not be complete. Please suggest additional citations or
report any other bugs at https://github.com/shankar1729/jdftx/issues

Initialization completed successfully at t[s]:    759.98

Fluid solver invoked on fresh (partially random / LCAO) wavefunctions
Running a vacuum solve first:

-------- Initial electronic minimization -----------
Will mix electronic density at each iteration.
	FillingsUpdate:  mu: -0.175905459  nElectrons: 263.000000
	FillingsUpdate:  mu: -0.188982111  nElectrons: 263.000000
SCF: Cycle:  0   F: -1005.226393267727303   dF: +1.679e-01   |Residual|: 1.014e+00   |deigs|: 5.708e-02  t[s]:    799.05
	FillingsUpdate:  mu: -0.216418766  nElectrons: 263.000000
SCF: Cycle:  1   F: -1001.932180592671443   dF: +3.294e+00   |Residual|: 1.786e+00   |deigs|: 6.739e-02  t[s]:    822.66
	FillingsUpdate:  mu: -0.190343262  nElectrons: 263.000000
SCF: Cycle:  2   F: -1007.382219306794127   dF: -5.450e+00   |Residual|: 3.877e-01   |deigs|: 6.000e-02  t[s]:    872.45
	FillingsUpdate:  mu: -0.192187344  nElectrons: 263.000000
SCF: Cycle:  3   F: -1006.705526764419574   dF: +6.767e-01   |Residual|: 6.659e-01   |deigs|: 1.165e-02  t[s]:    926.64
	FillingsUpdate:  mu: -0.184981894  nElectrons: 263.000000
SCF: Cycle:  4   F: -1007.575093886841159   dF: -8.696e-01   |Residual|: 1.780e-01   |deigs|: 8.489e-03  t[s]:    984.37
	FillingsUpdate:  mu: -0.177428056  nElectrons: 263.000000
SCF: Cycle:  5   F: -1007.652254556939852   dF: -7.716e-02   |Residual|: 6.356e-02   |deigs|: 8.257e-03  t[s]:   1043.53
	FillingsUpdate:  mu: -0.174468440  nElectrons: 263.000000
SCF: Cycle:  6   F: -1007.626112889119213   dF: +2.614e-02   |Residual|: 1.276e-01   |deigs|: 3.616e-03  t[s]:   1100.92
	FillingsUpdate:  mu: -0.172991167  nElectrons: 263.000000
SCF: Cycle:  7   F: -1007.656689450772660   dF: -3.058e-02   |Residual|: 3.861e-02   |deigs|: 2.102e-03  t[s]:   1128.70
	FillingsUpdate:  mu: -0.167895699  nElectrons: 263.000000
SCF: Cycle:  8   F: -1007.661639097961938   dF: -4.950e-03   |Residual|: 1.898e-02   |deigs|: 4.906e-03  t[s]:   1157.41
	FillingsUpdate:  mu: -0.162875148  nElectrons: 263.000000
SCF: Cycle:  9   F: -1007.662125898646650   dF: -4.868e-04   |Residual|: 2.374e-02   |deigs|: 5.030e-03  t[s]:   1189.97
	FillingsUpdate:  mu: -0.161495155  nElectrons: 263.000000
SCF: Cycle: 10   F: -1007.662475392617239   dF: -3.495e-04   |Residual|: 2.296e-02   |deigs|: 1.279e-03  t[s]:   1232.89
	FillingsUpdate:  mu: -0.157432317  nElectrons: 263.000000
SCF: Cycle: 11   F: -1007.663563777842796   dF: -1.088e-03   |Residual|: 1.444e-02   |deigs|: 3.731e-03  t[s]:   1275.30
	FillingsUpdate:  mu: -0.154485947  nElectrons: 263.000000
SCF: Cycle: 12   F: -1007.663875948154441   dF: -3.122e-04   |Residual|: 7.651e-03   |deigs|: 3.069e-03  t[s]:   1321.48
	FillingsUpdate:  mu: -0.150503555  nElectrons: 263.000000
SCF: Cycle: 13   F: -1007.663958138523867   dF: -8.219e-05   |Residual|: 4.476e-03   |deigs|: 4.164e-03  t[s]:   1345.38
	FillingsUpdate:  mu: -0.146817512  nElectrons: 263.000000
SCF: Cycle: 14   F: -1007.664026369149724   dF: -6.823e-05   |Residual|: 2.532e-03   |deigs|: 3.818e-03  t[s]:   1365.54
	FillingsUpdate:  mu: -0.144788356  nElectrons: 263.000000
SCF: Cycle: 15   F: -1007.664066299405476   dF: -3.993e-05   |Residual|: 2.105e-03   |deigs|: 2.003e-03  t[s]:   1384.82
	FillingsUpdate:  mu: -0.142414491  nElectrons: 263.000000
SCF: Cycle: 16   F: -1007.664097921745224   dF: -3.162e-05   |Residual|: 1.355e-03   |deigs|: 2.354e-03  t[s]:   1404.78
	FillingsUpdate:  mu: -0.140988320  nElectrons: 263.000000
SCF: Cycle: 17   F: -1007.664099665843878   dF: -1.744e-06   |Residual|: 2.279e-03   |deigs|: 1.427e-03  t[s]:   1421.48
	FillingsUpdate:  mu: -0.140663692  nElectrons: 263.000000
SCF: Cycle: 18   F: -1007.664104370427367   dF: -4.705e-06   |Residual|: 2.072e-03   |deigs|: 3.285e-04  t[s]:   1449.58
	FillingsUpdate:  mu: -0.139997091  nElectrons: 263.000000
SCF: Cycle: 19   F: -1007.664113381433936   dF: -9.011e-06   |Residual|: 9.293e-04   |deigs|: 7.413e-04  t[s]:   1471.00
	FillingsUpdate:  mu: -0.139744630  nElectrons: 263.000000
SCF: Cycle: 20   F: -1007.664115680235682   dF: -2.299e-06   |Residual|: 5.774e-04   |deigs|: 2.997e-04  t[s]:   1493.64
	FillingsUpdate:  mu: -0.139675463  nElectrons: 263.000000
SCF: Cycle: 21   F: -1007.664116476101640   dF: -7.959e-07   |Residual|: 7.468e-04   |deigs|: 1.899e-04  t[s]:   1534.57
	FillingsUpdate:  mu: -0.139672734  nElectrons: 263.000000
SCF: Cycle: 22   F: -1007.664118074558814   dF: -1.598e-06   |Residual|: 5.266e-04   |deigs|: 3.089e-05  t[s]:   1580.84
	FillingsUpdate:  mu: -0.139697905  nElectrons: 263.000000
SCF: Cycle: 23   F: -1007.664119168964703   dF: -1.094e-06   |Residual|: 3.655e-04   |deigs|: 1.267e-04  t[s]:   1622.80
	FillingsUpdate:  mu: -0.139668338  nElectrons: 263.000000
SCF: Cycle: 24   F: -1007.664120161521168   dF: -9.926e-07   |Residual|: 8.781e-05   |deigs|: 7.999e-05  t[s]:   1660.01
	FillingsUpdate:  mu: -0.139666150  nElectrons: 263.000000
SCF: Cycle: 25   F: -1007.664120805227867   dF: -6.437e-07   |Residual|: 4.597e-05   |deigs|: 6.498e-05  t[s]:   1696.33
	FillingsUpdate:  mu: -0.139656947  nElectrons: 263.000000
SCF: Cycle: 26   F: -1007.664121361325897   dF: -5.561e-07   |Residual|: 2.988e-05   |deigs|: 2.281e-05  t[s]:   1719.83
	FillingsUpdate:  mu: -0.139630748  nElectrons: 263.000000
SCF: Cycle: 27   F: -1007.664121849544244   dF: -4.882e-07   |Residual|: 1.886e-05   |deigs|: 3.054e-05  t[s]:   1738.83
	FillingsUpdate:  mu: -0.139621598  nElectrons: 263.000000
SCF: Cycle: 28   F: -1007.664122244686723   dF: -3.951e-07   |Residual|: 1.638e-05   |deigs|: 1.779e-05  t[s]:   1758.45
	FillingsUpdate:  mu: -0.139612163  nElectrons: 263.000000
SCF: Cycle: 29   F: -1007.664122579875652   dF: -3.352e-07   |Residual|: 1.210e-05   |deigs|: 1.896e-05  t[s]:   1803.51
	FillingsUpdate:  mu: -0.139609846  nElectrons: 263.000000
SCF: Cycle: 30   F: -1007.664122865819763   dF: -2.859e-07   |Residual|: 2.113e-05   |deigs|: 6.258e-06  t[s]:   1858.95
	FillingsUpdate:  mu: -0.139604708  nElectrons: 263.000000
SCF: Cycle: 31   F: -1007.664123113035657   dF: -2.472e-07   |Residual|: 6.328e-06   |deigs|: 2.370e-05  t[s]:   1914.08
	FillingsUpdate:  mu: -0.139600097  nElectrons: 263.000000
SCF: Cycle: 32   F: -1007.664123323172475   dF: -2.101e-07   |Residual|: 6.893e-06   |deigs|: 3.250e-05  t[s]:   1962.84
	FillingsUpdate:  mu: -0.139599368  nElectrons: 263.000000
SCF: Cycle: 33   F: -1007.664123504090981   dF: -1.809e-07   |Residual|: 6.744e-06   |deigs|: 5.175e-06  t[s]:   2012.39
	FillingsUpdate:  mu: -0.139596827  nElectrons: 263.000000
SCF: Cycle: 34   F: -1007.664123659020561   dF: -1.549e-07   |Residual|: 3.128e-06   |deigs|: 2.449e-05  t[s]:   2056.58
	FillingsUpdate:  mu: -0.139595915  nElectrons: 263.000000
SCF: Cycle: 35   F: -1007.664123793229578   dF: -1.342e-07   |Residual|: 6.018e-06   |deigs|: 9.964e-06  t[s]:   2085.68
	FillingsUpdate:  mu: -0.139595532  nElectrons: 263.000000
SCF: Cycle: 36   F: -1007.664123906508053   dF: -1.133e-07   |Residual|: 9.631e-06   |deigs|: 5.095e-06  t[s]:   2106.14
	FillingsUpdate:  mu: -0.139595828  nElectrons: 263.000000
SCF: Cycle: 37   F: -1007.664124003358438   dF: -9.685e-08   |Residual|: 1.776e-05   |deigs|: 3.638e-06  t[s]:   2124.72
	FillingsUpdate:  mu: -0.139595154  nElectrons: 263.000000
SCF: Cycle: 38   F: -1007.664124087760683   dF: -8.440e-08   |Residual|: 1.953e-05   |deigs|: 6.051e-06  t[s]:   2156.61
	FillingsUpdate:  mu: -0.139595413  nElectrons: 263.000000
SCF: Cycle: 39   F: -1007.664124157920014   dF: -7.016e-08   |Residual|: 2.402e-05   |deigs|: 1.453e-06  t[s]:   2205.86
	FillingsUpdate:  mu: -0.139595009  nElectrons: 263.000000
SCF: Cycle: 40   F: -1007.664124218356847   dF: -6.044e-08   |Residual|: 2.804e-05   |deigs|: 1.741e-06  t[s]:   2259.48
	FillingsUpdate:  mu: -0.139595008  nElectrons: 263.000000
SCF: Cycle: 41   F: -1007.664124269787408   dF: -5.143e-08   |Residual|: 3.257e-05   |deigs|: 1.643e-06  t[s]:   2313.23
	FillingsUpdate:  mu: -0.139595192  nElectrons: 263.000000
SCF: Cycle: 42   F: -1007.664124314143237   dF: -4.436e-08   |Residual|: 3.538e-05   |deigs|: 1.836e-06  t[s]:   2355.79
	FillingsUpdate:  mu: -0.139595021  nElectrons: 263.000000
SCF: Cycle: 43   F: -1007.664124351966962   dF: -3.782e-08   |Residual|: 3.935e-05   |deigs|: 1.192e-06  t[s]:   2403.12
	FillingsUpdate:  mu: -0.139595229  nElectrons: 263.000000
SCF: Cycle: 44   F: -1007.664124384436718   dF: -3.247e-08   |Residual|: 4.264e-05   |deigs|: 1.883e-06  t[s]:   2431.98
	FillingsUpdate:  mu: -0.139595452  nElectrons: 263.000000
SCF: Cycle: 45   F: -1007.664124412315573   dF: -2.788e-08   |Residual|: 4.607e-05   |deigs|: 2.628e-06  t[s]:   2457.14
	FillingsUpdate:  mu: -0.139594592  nElectrons: 263.000000
SCF: Cycle: 46   F: -1007.664124436287352   dF: -2.397e-08   |Residual|: 4.522e-05   |deigs|: 9.513e-06  t[s]:   2477.17
	FillingsUpdate:  mu: -0.139594463  nElectrons: 263.000000
SCF: Cycle: 47   F: -1007.664124456832724   dF: -2.055e-08   |Residual|: 4.819e-05   |deigs|: 3.636e-06  t[s]:   2497.60
	FillingsUpdate:  mu: -0.139594332  nElectrons: 263.000000
SCF: Cycle: 48   F: -1007.664124474492496   dF: -1.766e-08   |Residual|: 5.028e-05   |deigs|: 9.964e-07  t[s]:   2549.78
	FillingsUpdate:  mu: -0.139594721  nElectrons: 263.000000
SCF: Cycle: 49   F: -1007.664124489598748   dF: -1.511e-08   |Residual|: 5.121e-05   |deigs|: 1.630e-06  t[s]:   2595.84
	FillingsUpdate:  mu: -0.139594800  nElectrons: 263.000000
SCF: Cycle: 50   F: -1007.664124502545633   dF: -1.295e-08   |Residual|: 5.286e-05   |deigs|: 1.498e-06  t[s]:   2646.95
	FillingsUpdate:  mu: -0.139594090  nElectrons: 263.000000
SCF: Cycle: 51   F: -1007.664124513603952   dF: -1.106e-08   |Residual|: 5.485e-05   |deigs|: 3.278e-06  t[s]:   2699.36
	FillingsUpdate:  mu: -0.139594071  nElectrons: 263.000000
SCF: Cycle: 52   F: -1007.664124523130795   dF: -9.527e-09   |Residual|: 5.650e-05   |deigs|: 1.081e-06  t[s]:   2738.62
	FillingsUpdate:  mu: -0.139593983  nElectrons: 263.000000
SCF: Cycle: 53   F: -1007.664124531371158   dF: -8.240e-09   |Residual|: 5.956e-05   |deigs|: 1.272e-06  t[s]:   2762.95
SCF: Converged (|Delta E|<1.000000e-08 for 2 iters).

Vacuum energy after initial minimize, F = -1007.664124531371158

	FillingsUpdate:  mu: -0.139593983  nElectrons: 263.000000
	Linear fluid (dielectric constant: 78.4, screening length: 5.74355 Bohr) occupying 0.759405 of unit cell:	Completed after 21 iterations at t[s]:   2773.23

-------- Electronic minimization -----------
Will mix electronic density at each iteration.
	FillingsUpdate:  mu: -0.139593983  nElectrons: 263.000000
	Linear fluid (dielectric constant: 78.4, screening length: 5.74355 Bohr) occupying 0.759405 of unit cell:	Completed after 0 iterations at t[s]:   2783.69
	FillingsUpdate:  mu: -0.207050053  nElectrons: 263.000000
	Linear fluid (dielectric constant: 78.4, screening length: 5.74355 Bohr) occupying 0.759971 of unit cell:	Completed after 17 iterations at t[s]:   2830.90
SCF: Cycle:  0   F: -1007.649214080645947   dF: +2.398e-03   |Residual|: 2.312e-02   |deigs|: 8.840e-05  t[s]:   2835.91
	Linear fluid (dielectric constant: 78.4, screening length: 5.74355 Bohr) occupying 0.759386 of unit cell:	Completed after 16 iterations at t[s]:   2840.03
	FillingsUpdate:  mu: -0.208350639  nElectrons: 263.000000
	Linear fluid (dielectric constant: 78.4, screening length: 5.74355 Bohr) occupying 0.759939 of unit cell:	Completed after 18 iterations at t[s]:   2879.16
SCF: Cycle:  1   F: -1007.619991979918268   dF: +2.922e-02   |Residual|: 1.224e-01   |deigs|: 1.237e-03  t[s]:   2883.91
	Linear fluid (dielectric constant: 78.4, screening length: 5.74355 Bohr) occupying 0.759376 of unit cell:	Completed after 18 iterations at t[s]:   2888.51
	FillingsUpdate:  mu: -0.206917015  nElectrons: 263.000000
	Linear fluid (dielectric constant: 78.4, screening length: 5.74355 Bohr) occupying 0.759935 of unit cell:	Completed after 15 iterations at t[s]:   2926.15
SCF: Cycle:  2   F: -1007.651371428292805   dF: -3.138e-02   |Residual|: 1.594e-02   |deigs|: 1.081e-03  t[s]:   2928.80
	Linear fluid (dielectric constant: 78.4, screening length: 5.74355 Bohr) occupying 0.759372 of unit cell:	Completed after 14 iterations at t[s]:   2934.69
	FillingsUpdate:  mu: -0.206437465  nElectrons: 263.000000
	Linear fluid (dielectric constant: 78.4, screening length: 5.74355 Bohr) occupying 0.759915 of unit cell:	Completed after 14 iterations at t[s]:   2960.70
SCF: Cycle:  3   F: -1007.651084299999980   dF: +2.871e-04   |Residual|: 2.289e-02   |deigs|: 7.326e-04  t[s]:   2964.02
	Linear fluid (dielectric constant: 78.4, screening length: 5.74355 Bohr) occupying 0.759392 of unit cell:	Completed after 12 iterations at t[s]:   2968.08
	FillingsUpdate:  mu: -0.206674671  nElectrons: 263.000000
	Linear fluid (dielectric constant: 78.4, screening length: 5.74355 Bohr) occupying 0.759917 of unit cell:	Completed after 14 iterations at t[s]:   2992.81
SCF: Cycle:  4   F: -1007.651977081883501   dF: -8.928e-04   |Residual|: 2.251e-03   |deigs|: 4.252e-04  t[s]:   2996.00
	Linear fluid (dielectric constant: 78.4, screening length: 5.74355 Bohr) occupying 0.759456 of unit cell:	Completed after 13 iterations at t[s]:   2999.76
	FillingsUpdate:  mu: -0.206502699  nElectrons: 263.000000
	Linear fluid (dielectric constant: 78.4, screening length: 5.74355 Bohr) occupying 0.759912 of unit cell:	Completed after 12 iterations at t[s]:   3025.56
SCF: Cycle:  5   F: -1007.651961526375999   dF: +1.556e-05   |Residual|: 4.334e-03   |deigs|: 1.954e-04  t[s]:   3030.14
	Linear fluid (dielectric constant: 78.4, screening length: 5.74355 Bohr) occupying 0.759477 of unit cell:	Completed after 11 iterations at t[s]:   3033.22
	FillingsUpdate:  mu: -0.206437000  nElectrons: 263.000000
	Linear fluid (dielectric constant: 78.4, screening length: 5.74355 Bohr) occupying 0.759910 of unit cell:	Completed after 11 iterations at t[s]:   3053.73
SCF: Cycle:  6   F: -1007.651984188187157   dF: -2.266e-05   |Residual|: 2.703e-03   |deigs|: 8.892e-05  t[s]:   3055.92
	Linear fluid (dielectric constant: 78.4, screening length: 5.74355 Bohr) occupying 0.759590 of unit cell:	Completed after 10 iterations at t[s]:   3059.31
	FillingsUpdate:  mu: -0.206268855  nElectrons: 263.000000
	Linear fluid (dielectric constant: 78.4, screening length: 5.74355 Bohr) occupying 0.759906 of unit cell:	Completed after 10 iterations at t[s]:   3092.27
SCF: Cycle:  7   F: -1007.651998571713420   dF: -1.438e-05   |Residual|: 8.688e-04   |deigs|: 1.768e-04  t[s]:   3099.20
	Linear fluid (dielectric constant: 78.4, screening length: 5.74355 Bohr) occupying 0.759694 of unit cell:	Completed after 9 iterations at t[s]:   3107.02
	FillingsUpdate:  mu: -0.206169380  nElectrons: 263.000000
	Linear fluid (dielectric constant: 78.4, screening length: 5.74355 Bohr) occupying 0.759904 of unit cell:	Completed after 9 iterations at t[s]:   3164.16
SCF: Cycle:  8   F: -1007.652001250698049   dF: -2.679e-06   |Residual|: 5.209e-04   |deigs|: 1.062e-04  t[s]:   3170.13
	Linear fluid (dielectric constant: 78.4, screening length: 5.74355 Bohr) occupying 0.759783 of unit cell:	Completed after 9 iterations at t[s]:   3173.80
	FillingsUpdate:  mu: -0.206110925  nElectrons: 263.000000
	Linear fluid (dielectric constant: 78.4, screening length: 5.74355 Bohr) occupying 0.759903 of unit cell:	Completed after 8 iterations at t[s]:   3228.02
SCF: Cycle:  9   F: -1007.652001406679915   dF: -1.560e-07   |Residual|: 4.855e-04   |deigs|: 6.643e-05  t[s]:   3232.77
	Linear fluid (dielectric constant: 78.4, screening length: 5.74355 Bohr) occupying 0.759829 of unit cell:	Completed after 4 iterations at t[s]:   3235.08
	FillingsUpdate:  mu: -0.206020378  nElectrons: 263.000000
	Linear fluid (dielectric constant: 78.4, screening length: 5.74355 Bohr) occupying 0.759898 of unit cell:	Completed after 4 iterations at t[s]:   3275.75
SCF: Cycle: 10   F: -1007.651999217569255   dF: +2.189e-06   |Residual|: 1.205e-03   |deigs|: 8.512e-05  t[s]:   3279.87
	Linear fluid (dielectric constant: 78.4, screening length: 5.74355 Bohr) occupying 0.759895 of unit cell:	Completed after 4 iterations at t[s]:   3282.09
	FillingsUpdate:  mu: -0.206030121  nElectrons: 263.000000
	Linear fluid (dielectric constant: 78.4, screening length: 5.74355 Bohr) occupying 0.759900 of unit cell:	Completed after 4 iterations at t[s]:   3321.40
SCF: Cycle: 11   F: -1007.651999099593013   dF: +1.180e-07   |Residual|: 1.123e-03   |deigs|: 4.036e-05  t[s]:   3324.87
	Linear fluid (dielectric constant: 78.4, screening length: 5.74355 Bohr) occupying 0.759914 of unit cell:	Completed after 4 iterations at t[s]:   3328.69
	FillingsUpdate:  mu: -0.206024526  nElectrons: 263.000000
	Linear fluid (dielectric constant: 78.4, screening length: 5.74355 Bohr) occupying 0.759900 of unit cell:	Completed after 4 iterations at t[s]:   3349.66
SCF: Cycle: 12   F: -1007.652001631323287   dF: -2.532e-06   |Residual|: 4.638e-04   |deigs|: 2.478e-05  t[s]:   3352.00
	Linear fluid (dielectric constant: 78.4, screening length: 5.74355 Bohr) occupying 0.759941 of unit cell:	Completed after 3 iterations at t[s]:   3354.92
	FillingsUpdate:  mu: -0.206018202  nElectrons: 263.000000
	Linear fluid (dielectric constant: 78.4, screening length: 5.74355 Bohr) occupying 0.759899 of unit cell:	Completed after 3 iterations at t[s]:   3380.53
SCF: Cycle: 13   F: -1007.652001463267652   dF: +1.681e-07   |Residual|: 8.287e-04   |deigs|: 3.487e-05  t[s]:   3383.40
	Linear fluid (dielectric constant: 78.4, screening length: 5.74355 Bohr) occupying 0.759946 of unit cell:	Completed after 3 iterations at t[s]:   3385.93
	FillingsUpdate:  mu: -0.206016854  nElectrons: 263.000000
	Linear fluid (dielectric constant: 78.4, screening length: 5.74355 Bohr) occupying 0.759899 of unit cell:	Completed after 2 iterations at t[s]:   3414.02
SCF: Cycle: 14   F: -1007.652002403186884   dF: -9.399e-07   |Residual|: 3.819e-04   |deigs|: 3.201e-05  t[s]:   3417.02
	Linear fluid (dielectric constant: 78.4, screening length: 5.74355 Bohr) occupying 0.759943 of unit cell:	Completed after 3 iterations at t[s]:   3418.98
	FillingsUpdate:  mu: -0.206009682  nElectrons: 263.000000
	Linear fluid (dielectric constant: 78.4, screening length: 5.74355 Bohr) occupying 0.759898 of unit cell:	Completed after 2 iterations at t[s]:   3456.83
SCF: Cycle: 15   F: -1007.652002686752553   dF: -2.836e-07   |Residual|: 2.419e-04   |deigs|: 1.414e-05  t[s]:   3460.44
	Linear fluid (dielectric constant: 78.4, screening length: 5.74355 Bohr) occupying 0.759940 of unit cell:	Completed after 2 iterations at t[s]:   3462.12
	FillingsUpdate:  mu: -0.206011311  nElectrons: 263.000000
	Linear fluid (dielectric constant: 78.4, screening length: 5.74355 Bohr) occupying 0.759898 of unit cell:	Completed after 3 iterations at t[s]:   3497.64
SCF: Cycle: 16   F: -1007.652001517800841   dF: +1.169e-06   |Residual|: 7.058e-04   |deigs|: 4.856e-05  t[s]:   3501.45
	Linear fluid (dielectric constant: 78.4, screening length: 5.74355 Bohr) occupying 0.759933 of unit cell:	Completed after 3 iterations at t[s]:   3503.31
	FillingsUpdate:  mu: -0.206020391  nElectrons: 263.000000
	Linear fluid (dielectric constant: 78.4, screening length: 5.74355 Bohr) occupying 0.759897 of unit cell:	Completed after 3 iterations at t[s]:   3542.75
SCF: Cycle: 17   F: -1007.652002302932601   dF: -7.851e-07   |Residual|: 4.308e-04   |deigs|: 3.852e-05  t[s]:   3546.71
	Linear fluid (dielectric constant: 78.4, screening length: 5.74355 Bohr) occupying 0.759929 of unit cell:	Completed after 2 iterations at t[s]:   3548.64
	FillingsUpdate:  mu: -0.206010699  nElectrons: 263.000000
	Linear fluid (dielectric constant: 78.4, screening length: 5.74355 Bohr) occupying 0.759897 of unit cell:	Completed after 3 iterations at t[s]:   3573.01
SCF: Cycle: 18   F: -1007.652002434321389   dF: -1.314e-07   |Residual|: 2.924e-04   |deigs|: 2.604e-05  t[s]:   3576.17
	Linear fluid (dielectric constant: 78.4, screening length: 5.74355 Bohr) occupying 0.759919 of unit cell:	Completed after 3 iterations at t[s]:   3580.19
	FillingsUpdate:  mu: -0.206018384  nElectrons: 263.000000
	Linear fluid (dielectric constant: 78.4, screening length: 5.74355 Bohr) occupying 0.759896 of unit cell:	Completed after 3 iterations at t[s]:   3604.62
SCF: Cycle: 19   F: -1007.652002424431203   dF: +9.890e-09   |Residual|: 4.187e-04   |deigs|: 5.388e-05  t[s]:   3606.97
	Linear fluid (dielectric constant: 78.4, screening length: 5.74355 Bohr) occupying 0.759917 of unit cell:	Completed after 2 iterations at t[s]:   3609.64
	FillingsUpdate:  mu: -0.206013899  nElectrons: 263.000000
	Linear fluid (dielectric constant: 78.4, screening length: 5.74355 Bohr) occupying 0.759896 of unit cell:	Completed after 2 iterations at t[s]:   3630.31
SCF: Cycle: 20   F: -1007.652002665703208   dF: -2.413e-07   |Residual|: 2.250e-04   |deigs|: 1.018e-05  t[s]:   3634.06
	Linear fluid (dielectric constant: 78.4, screening length: 5.74355 Bohr) occupying 0.759906 of unit cell:	Completed after 3 iterations at t[s]:   3636.38
	FillingsUpdate:  mu: -0.206017521  nElectrons: 263.000000
	Linear fluid (dielectric constant: 78.4, screening length: 5.74355 Bohr) occupying 0.759895 of unit cell:	Completed after 3 iterations at t[s]:   3700.11
SCF: Cycle: 21   F: -1007.652001668528328   dF: +9.972e-07   |Residual|: 6.395e-04   |deigs|: 8.385e-05  t[s]:   3706.00
	Linear fluid (dielectric constant: 78.4, screening length: 5.74355 Bohr) occupying 0.759898 of unit cell:	Completed after 2 iterations at t[s]:   3708.12
	FillingsUpdate:  mu: -0.206011727  nElectrons: 263.000000
	Linear fluid (dielectric constant: 78.4, screening length: 5.74355 Bohr) occupying 0.759895 of unit cell:	Completed after 2 iterations at t[s]:   3774.86
SCF: Cycle: 22   F: -1007.652002615093238   dF: -9.466e-07   |Residual|: 2.400e-04   |deigs|: 3.023e-05  t[s]:   3780.55
	Linear fluid (dielectric constant: 78.4, screening length: 5.74355 Bohr) occupying 0.759900 of unit cell:	Completed after 3 iterations at t[s]:   3783.24
	FillingsUpdate:  mu: -0.206015957  nElectrons: 263.000000
	Linear fluid (dielectric constant: 78.4, screening length: 5.74355 Bohr) occupying 0.759895 of unit cell:	Completed after 3 iterations at t[s]:   3849.07
SCF: Cycle: 23   F: -1007.652002357716356   dF: +2.574e-07   |Residual|: 3.838e-04   |deigs|: 1.065e-05  t[s]:   3855.48
	Linear fluid (dielectric constant: 78.4, screening length: 5.74355 Bohr) occupying 0.759890 of unit cell:	Completed after 2 iterations at t[s]:   3858.01
	FillingsUpdate:  mu: -0.206008257  nElectrons: 263.000000
	Linear fluid (dielectric constant: 78.4, screening length: 5.74355 Bohr) occupying 0.759894 of unit cell:	Completed after 2 iterations at t[s]:   3920.58
SCF: Cycle: 24   F: -1007.652002268580418   dF: +8.914e-08   |Residual|: 4.580e-04   |deigs|: 9.908e-05  t[s]:   3926.23
	Linear fluid (dielectric constant: 78.4, screening length: 5.74355 Bohr) occupying 0.759890 of unit cell:	Completed after 3 iterations at t[s]:   3928.97
	FillingsUpdate:  mu: -0.206009801  nElectrons: 263.000000
	Linear fluid (dielectric constant: 78.4, screening length: 5.74355 Bohr) occupying 0.759894 of unit cell:	Completed after 0 iterations at t[s]:   3994.30
SCF: Cycle: 25   F: -1007.652002904319602   dF: -6.357e-07   |Residual|: 1.135e-04   |deigs|: 6.678e-05  t[s]:   3999.38
	Linear fluid (dielectric constant: 78.4, screening length: 5.74355 Bohr) occupying 0.759894 of unit cell:	Completed after 0 iterations at t[s]:   4000.67
	FillingsUpdate:  mu: -0.206009983  nElectrons: 263.000000
	Linear fluid (dielectric constant: 78.4, screening length: 5.74355 Bohr) occupying 0.759894 of unit cell:	Completed after 0 iterations at t[s]:   4061.19
SCF: Cycle: 26   F: -1007.652002911153886   dF: -6.834e-09   |Residual|: 1.104e-04   |deigs|: 2.021e-05  t[s]:   4065.60
	Linear fluid (dielectric constant: 78.4, screening length: 5.74355 Bohr) occupying 0.759896 of unit cell:	Completed after 0 iterations at t[s]:   4066.83
	FillingsUpdate:  mu: -0.206010220  nElectrons: 263.000000
	Linear fluid (dielectric constant: 78.4, screening length: 5.74355 Bohr) occupying 0.759894 of unit cell:	Completed after 0 iterations at t[s]:   4097.32
SCF: Cycle: 27   F: -1007.652002913704337   dF: -2.550e-09   |Residual|: 1.038e-04   |deigs|: 2.720e-05  t[s]:   4100.24
SCF: Converged (|Delta E|<1.000000e-08 for 2 iters).

Single-point solvation energy estimate, DeltaF = +0.012121617666821

# Ionic positions in lattice coordinates:
ion Li   0.333999930863447   0.334499685284467   0.497707429953407 0
ion Li   0.831590507058168   0.334283409219119   0.498484362126442 0
ion Li   0.334657564649104   0.831043976612993   0.498168497957380 0
ion Li   0.833366377293396   0.833287519990771   0.498712247494613 0
ion Ni   0.167135976856994   0.165767513206287   0.498654374917615 0
ion Ni   0.666534886220947   0.167190422763291   0.498662391815860 0
ion Ni   0.166943772957093   0.666381528862130   0.498731424727690 0
ion Ni   0.666517065896414   0.666723579034103   0.498518424186501 0
ion P  -0.002342977355621   0.502378758286854   0.438589846621640 0
ion P  -0.000189624245169   0.502184915448700   0.558273644453774 0
ion P   0.500083632504714   0.499917077183165   0.498207448132237 0
ion P   0.501935166328370  -0.002171216278450   0.557911674867947 0
ion P   0.000682700565857  -0.002762834879629   0.439296578232414 0
ion P  -0.001909543073239  -0.000543082785519   0.558841968237891 0
ion P   0.502467999266034  -0.000229191041177   0.438356183112401 0
ion S   0.016982310227966   0.324600913339834   0.585667651463139 0
ion S   0.323280345799697   0.159081954421856   0.584422850660488 0
ion S   0.018464719410322   0.158012608141325   0.412290887680008 0
ion S   0.157534762537651   0.324877574629722   0.410859482608816 0
ion S   0.323998889416408   0.017483417289293   0.410941790247117 0
ion S   0.159467629234941   0.016591802866656   0.585877383133040 0
ion S   0.518614152046680   0.338509916695553   0.568923504477935 0
ion S   0.818643677973330   0.165245102096427   0.583168172121696 0
ion S   0.516576555708803   0.165238413121412   0.413902274909477 0
ion S   0.643301557561234   0.338193333467462   0.427725362879323 0
ion S   0.823586520010163   0.014958794811554   0.411136568962391 0
ion S   0.661406101536330   0.015458208532529   0.586143211461370 0
ion S   0.014399533382588   0.823314301659302   0.586366141600067 0
ion S   0.338819573855083   0.642655902283965   0.569132853429300 0
ion S   0.014379706917836   0.662159232929015   0.411176069496638 0
ion S   0.165796881708685   0.818176037126068   0.414349368142423 0
ion S   0.337782797573434   0.518816368722332   0.427688808588499 0
ion S   0.165956978117009   0.516298546501034   0.582914412918060 0
ion S   0.515663270976261   0.818786474794797   0.582819779456368 0
ion S   0.823304223817907   0.661993615341249   0.585953010614387 0
ion S   0.518676085964042   0.642962763604142   0.427553796478842 0
ion S   0.662131720156915   0.823588010345055   0.410832204901996 0
ion S   0.817223063450072   0.516802660432892   0.414047592985254 0
ion S   0.643225079830126   0.518823033939475   0.568990340945557 0


# Forces in Lattice coordinates:
force Li  -0.014098969448820  -0.014929504539463   0.004163908527781 0
force Li   0.013800761731161  -0.001107701177163   0.002037751211605 0
force Li   0.000266234762081   0.014245681560171   0.003297632008140 0
force Li  -0.000422036251293   0.000954784610213  -0.001594400229556 0
force Ni   0.002736420101489   0.007770302803446  -0.045766414695749 0
force Ni   0.003585501293489   0.028159688922487  -0.047341230292298 0
force Ni   0.024140616627694   0.005229239406292  -0.039544791676942 0
force Ni  -0.024416133744158  -0.023315017760225  -0.042872247232440 0
force P  -0.052466498794270  -0.027497829652147   0.016005089541282 0
force P   0.048815412303963   0.021822072288115  -0.012588382157068 0
force P   0.002628179124194   0.000199277839754   0.004477207228070 0
force P  -0.030369627819379  -0.037757621221630  -0.006280178310355 0
force P   0.026973368288790  -0.005880158653195   0.000977850651319 0
force P  -0.013893432487824   0.028506727158901  -0.011771972890118 0
force P   0.024158488159782   0.046607087132477   0.009902504228602 0
force S  -0.024252494675695  -0.061647930199213  -0.014740846655317 0
force S  -0.022930128724528   0.023681593588720  -0.000664368936478 0
force S   0.023952231406941   0.051838753157895   0.014027476427161 0
force S   0.028670601325299  -0.040738517834686   0.022399796068067 0
force S  -0.067184673553045  -0.026876452317409   0.021665003490168 0
force S   0.056670447905650   0.038702447890181  -0.015098288032248 0
force S  -0.029380297150242  -0.043325087096019   0.004783648286381 0
force S   0.012825790798376   0.006738620090548   0.033390979538612 0
force S  -0.009557960376214  -0.003380643049918  -0.028278925639078 0
force S   0.024033089473266  -0.020329497392159   0.007689640589286 0
force S  -0.050953958812272  -0.011539518229833  -0.004521181079682 0
force S   0.044048203810473   0.034819230382768   0.002552419920089 0
force S  -0.006324149162467  -0.047073668789046   0.006233294010736 0
force S  -0.013247323625338   0.028315999195814   0.001425325873727 0
force S   0.040452232929769   0.048105443058796  -0.007661098690583 0
force S   0.006801781253705   0.009623440574232  -0.030253070233137 0
force S  -0.043492809847221  -0.026323500540057   0.002715965541418 0
force S  -0.011092646814914  -0.017972229009658   0.029118899201251 0
force S  -0.005301929100258   0.005853451555003   0.031143647164850 0
force S  -0.034902098951203   0.004836174602358   0.005055573009623 0
force S   0.014619900028072   0.042064233394819   0.007096401657329 0
force S   0.010978089118485  -0.039567686716870  -0.006566894839292 0
force S   0.011114684108203  -0.005579045957426  -0.025718312166571 0
force S   0.041891931209405   0.013791393372647   0.003932045823768 0

# Energy components:
   A_diel =        0.0116229306742773
   Eewald =     4045.3698706208760996
       EH =     4910.0450050096087580
     Eloc =   -10170.1483340752129152
      Enl =      146.2510021322738680
      Exc =     -200.0232972229890152
 Exc_core =       51.8512317736000270
       KE =      209.0189261032234072
-------------------------------------
     Etot =    -1007.6239727279456702
       TS =        0.0280301857586319
-------------------------------------
        F =    -1007.6520029137043366

IonicMinimize: Iter:   0  F: -1007.652002913704337  |grad|_K:  0.000e+00  t[s]:   4110.08
IonicMinimize: Converged (|grad|_K<1.000000e-04).

#--- Lowdin population analysis ---
# oxidation-state Li -0.486 -0.486 -0.487 -0.475
# oxidation-state Ni -0.366 -0.448 -0.449 -0.449
# oxidation-state P +0.740 +0.740 +0.877 +0.739 +0.739 +0.741 +0.741
# oxidation-state S +0.027 +0.041 +0.039 +0.024 +0.030 +0.030 +0.070 +0.072 +0.072 +0.068 +0.016 +0.017 +0.015 +0.070 +0.017 +0.072 +0.070 +0.074 +0.071 +0.019 +0.069 +0.015 +0.075 +0.071


Dumping 'NbTe2.fillings' ... done
Dumping 'NbTe2.wfns' ... done
Dumping 'NbTe2.fluidState' ... done
Dumping 'NbTe2.eigenvals' ... done
End date and time: Thu Jul 30 17:42:12 2020  (Duration: 0-1:08:35.48)
Done!
