
*************** JDFTx 1.5.0  ***************

Start date and time: Mon Jul 13 16:26:53 2020
Executable jdftx_gpu with command-line: -i Neutral.in -o Neutral.out
Running on hosts (process indices):  amax (0-3)
Divided in process groups (process indices):  0 (0)  1 (1)  2 (2)  3 (3)
gpuInit: Found compatible cuda device 0 'Tesla K80'
gpuInit: Found compatible cuda device 1 'Tesla K80'
gpuInit: Found compatible cuda device 2 'Tesla K80'
gpuInit: Found compatible cuda device 3 'Tesla K80'
gpuInit: Selected device 0
Resource initialization completed at t[s]:     20.74
Run totals: 4 processes, 24 threads, 4 GPUs


Input parsed successfully to the following command list (including defaults):

basis kpoint-dependent
cache-projectors no
coords-type Lattice
core-overlap-check none
coulomb-interaction Slab 001
coulomb-truncation-embed 0 0 0.5
davidson-band-ratio 1.1
dump End State
dump-name NbTe2.$VAR
elec-cutoff 20 100
elec-eigen-algo Davidson
elec-ex-corr gga-PBE
elec-smearing Gauss 0.0073499
electronic-minimize  \
	dirUpdateScheme      FletcherReeves \
	linminMethod         DirUpdateRecommended \
	nIterations          500 \
	history              15 \
	knormThreshold       0 \
	energyDiffThreshold  1e-08 \
	nEnergyDiff          2 \
	alphaTstart          1 \
	alphaTmin            1e-10 \
	updateTestStepSize   yes \
	alphaTreduceFactor   0.1 \
	alphaTincreaseFactor 3 \
	nAlphaAdjustMax      3 \
	wolfeEnergy          0.0001 \
	wolfeGradient        0.9 \
	fdTest               no
exchange-regularization WignerSeitzTruncated
fluid LinearPCM 298.000000 1.013250
fluid-anion F- 1 MeanFieldLJ \
	epsBulk 1 \
	pMol 0 \
	epsInf 1 \
	Pvap 0 \
	sigmaBulk 0 \
	Rvdw 2.24877 \
	Res 0 \
	tauNuc 343133
fluid-cation Na+ 1 MeanFieldLJ \
	epsBulk 1 \
	pMol 0 \
	epsInf 1 \
	Pvap 0 \
	sigmaBulk 0 \
	Rvdw 2.19208 \
	Res 0 \
	tauNuc 343133
fluid-ex-corr lda-TF lda-PZ
fluid-gummel-loop 10 1.000000e-05
fluid-minimize  \
	dirUpdateScheme      PolakRibiere \
	linminMethod         DirUpdateRecommended \
	nIterations          400 \
	history              15 \
	knormThreshold       1e-11 \
	energyDiffThreshold  0 \
	nEnergyDiff          2 \
	alphaTstart          1 \
	alphaTmin            1e-10 \
	updateTestStepSize   yes \
	alphaTreduceFactor   0.1 \
	alphaTincreaseFactor 3 \
	nAlphaAdjustMax      6 \
	wolfeEnergy          0.0001 \
	wolfeGradient        0.9 \
	fdTest               no
fluid-solvent H2O 55.338 ScalarEOS \
	epsBulk 78.4 \
	pMol 0.92466 \
	epsInf 1.77 \
	Pvap 1.06736e-10 \
	sigmaBulk 4.62e-05 \
	Rvdw 2.61727 \
	Res 1.42 \
	tauNuc 343133 \
	poleEl 15 7 1
forces-output-coords Positions
initial-state NbTe2.$VAR
ion Cu  -0.000000000000000   0.000000000000000   0.500000000000000 0
ion Cu   0.250000000000000   0.250000000000000   0.500000000000000 0
ion Cu   0.500000000000000  -0.000000000000000   0.500000000000000 0
ion Cu   0.750000000000000   0.250000000000000   0.500000000000000 0
ion Cu  -0.000000000000000   0.500000000000000   0.500000000000000 0
ion Cu   0.250000000000000   0.750000028000002   0.500000000000000 0
ion Cu   0.500000000000000   0.500000000000000   0.500000000000000 0
ion Cu   0.750000000000000   0.750000028000002   0.500000000000000 0
ion H   0.313064531905190   0.020931339827470   0.435796826224195 0
ion H   0.063074522905196   0.229068657172533   0.564193205775804 0
ion H   0.436925498094810   0.270921321827473   0.435816813224190 0
ion H   0.186935468094810   0.479068671172527   0.564193205775804 0
ion H   0.813064497905194   0.020931339827470   0.435796826224195 0
ion H   0.563074501905191   0.229068657172533   0.564193205775804 0
ion H   0.936925464094807   0.270921321827473   0.435816813224190 0
ion H   0.686935502094806   0.479068671172527   0.564193205775804 0
ion H   0.313064531905190   0.520931328827473   0.435796826224195 0
ion H   0.063074522905196   0.729068643172532   0.564193205775804 0
ion H   0.436925498094810   0.770921348827472   0.435816813224190 0
ion H   0.186935468094810   0.979068671172527   0.564193205775804 0
ion H   0.813064497905194   0.520931328827473   0.435796826224195 0
ion H   0.563074501905191   0.729068643172532   0.564193205775804 0
ion H   0.936925464094807   0.770921348827472   0.435816813224190 0
ion H   0.686935502094806   0.979068671172527   0.564193205775804 0
ion Se   0.321991356352024   0.407656835428365   0.559885292975333 0
ion Se   0.071981344352027   0.342343164571635   0.440114656024673 0
ion Se   0.428008643647976   0.157656835428365   0.559885292975333 0
ion Se   0.178008660647973   0.092343157571638   0.440114656024673 0
ion Se   0.821991356352024   0.407656835428365   0.559885292975333 0
ion Se   0.571981318352025   0.342343164571635   0.440114656024673 0
ion Se   0.928008643647976   0.157656835428365   0.559885292975333 0
ion Se   0.678008643647976   0.092343157571638   0.440114656024673 0
ion Se   0.321991356352024   0.907656863428360   0.559885292975333 0
ion Se   0.071981344352027   0.842343164571635   0.440114656024673 0
ion Se   0.428008643647976   0.657656835428365   0.559885292975333 0
ion Se   0.178008660647973   0.592343136571640   0.440114656024673 0
ion Se   0.821991356352024   0.907656863428360   0.559885292975333 0
ion Se   0.571981318352025   0.842343164571635   0.440114656024673 0
ion Se   0.928008643647976   0.657656835428365   0.559885292975333 0
ion Se   0.678008643647976   0.592343136571640   0.440114656024673 0
ion O   0.114670647012625   0.260883016268104   0.484632236891446 0
ion O   0.385329335987370   0.239117011731898   0.515377782108555 0
ion O   0.364660660012627   0.489116983731896   0.515377782108555 0
ion O   0.232054043988600   0.139195188177115   0.510732308795606 0
ion O   0.135339347987374   0.010883003268099   0.484622217891445 0
ion O   0.482054043988600   0.110814819822889   0.489267639204389 0
ion O   0.267955960011397   0.360804811822885   0.489267639204389 0
ion O   0.017955947011399   0.389185180177111   0.510742327795608 0
ion O   0.276589702143032   0.048241705707900   0.396487183830044 0
ion O   0.026599714143029   0.201768298292104   0.603502823169957 0
ion O   0.223410280856971   0.451768298292104   0.603502823169957 0
ion O   0.473400293856972   0.298221721707902   0.396497176830043 0
ion O   0.614670630012628   0.260883016268104   0.484632236891446 0
ion O   0.885329369987372   0.239117011731898   0.515377782108555 0
ion O   0.864660660012627   0.489116983731896   0.515377782108555 0
ion O   0.732054077988602   0.139195188177115   0.510732308795606 0
ion O   0.635339339987373   0.010883003268099   0.484622217891445 0
ion O   0.982054077988602   0.110814819822889   0.489267639204389 0
ion O   0.767955960011397   0.360804811822885   0.489267639204389 0
ion O   0.517955960011397   0.389185180177111   0.510742327795608 0
ion O   0.776589702143032   0.048241705707900   0.396487183830044 0
ion O   0.526599706143028   0.201768298292104   0.603502823169957 0
ion O   0.723410297856968   0.451768298292104   0.603502823169957 0
ion O   0.973400260856973   0.298221721707902   0.396497176830043 0
ion O   0.114670647012625   0.760882988268102   0.484632236891446 0
ion O   0.385329335987370   0.739117011731898   0.515377782108555 0
ion O   0.364660660012627   0.989117039731900   0.515377782108555 0
ion O   0.232054043988600   0.639195133177114   0.510732308795606 0
ion O   0.135339347987374   0.510882960268100   0.484622217891445 0
ion O   0.482054043988600   0.610814791822886   0.489267639204389 0
ion O   0.267955960011397   0.860804866822886   0.489267639204389 0
ion O   0.017955947011399   0.889185208177114   0.510742327795608 0
ion O   0.276589702143032   0.548241709707900   0.396487183830044 0
ion O   0.026599714143029   0.701768270292102   0.603502823169957 0
ion O   0.223410280856971   0.951768243292103   0.603502823169957 0
ion O   0.473400293856972   0.798221666707900   0.396497176830043 0
ion O   0.614670630012628   0.760882988268102   0.484632236891446 0
ion O   0.885329369987372   0.739117011731898   0.515377782108555 0
ion O   0.864660660012627   0.989117039731900   0.515377782108555 0
ion O   0.732054077988602   0.639195133177114   0.510732308795606 0
ion O   0.635339339987373   0.510882960268100   0.484622217891445 0
ion O   0.982054077988602   0.610814791822886   0.489267639204389 0
ion O   0.767955960011397   0.860804866822886   0.489267639204389 0
ion O   0.517955960011397   0.889185208177114   0.510742327795608 0
ion O   0.776589702143032   0.548241709707900   0.396487183830044 0
ion O   0.526599706143028   0.701768270292102   0.603502823169957 0
ion O   0.723410297856968   0.951768243292103   0.603502823169957 0
ion O   0.973400260856973   0.798221666707900   0.396497176830043 0
ion-species GBRV/$ID_pbe.uspp
ion-width Ecut
ionic-minimize  \
	dirUpdateScheme      L-BFGS \
	linminMethod         DirUpdateRecommended \
	nIterations          0 \
	history              15 \
	knormThreshold       0.0001 \
	energyDiffThreshold  1e-06 \
	nEnergyDiff          2 \
	alphaTstart          1 \
	alphaTmin            1e-10 \
	updateTestStepSize   yes \
	alphaTreduceFactor   0.1 \
	alphaTincreaseFactor 3 \
	nAlphaAdjustMax      3 \
	wolfeEnergy          0.0001 \
	wolfeGradient        0.9 \
	fdTest               no
kpoint   0.000000000000   0.000000000000   0.000000000000  1.00000000000000
kpoint-folding 2 2 1 
latt-move-scale 1 1 1
latt-scale 1 1 1 
lattice Triclinic 26.5716 32.5947 35.0769 90 90 90
lattice-minimize  \
	dirUpdateScheme      L-BFGS \
	linminMethod         DirUpdateRecommended \
	nIterations          0 \
	history              15 \
	knormThreshold       0 \
	energyDiffThreshold  1e-06 \
	nEnergyDiff          2 \
	alphaTstart          1 \
	alphaTmin            1e-10 \
	updateTestStepSize   yes \
	alphaTreduceFactor   0.1 \
	alphaTincreaseFactor 3 \
	nAlphaAdjustMax      3 \
	wolfeEnergy          0.0001 \
	wolfeGradient        0.9 \
	fdTest               no
lcao-params -1 1e-06 0.0073499
pcm-variant CANDLE
spintype no-spin
subspace-rotation-factor 1 yes
symmetries automatic
symmetry-threshold 0.0001



---------- Setting up symmetries ----------

Found 8 point-group symmetries of the bravais lattice
Found 8 space-group symmetries with basis
Applied RMS atom displacement 0.000159475 bohrs to make symmetries exact.

---------- Initializing the Grid ----------
R = 
[    26.5716          0          0  ]
[          0    32.5947          0  ]
[          0          0    35.0769  ]
unit cell volume = 30379.9
G =
[   0.236462          0          0  ]
[          0   0.192767          0  ]
[          0          0   0.179126  ]
Minimum fftbox size, Smin = [  120  148  160  ]
Chosen fftbox size, S = [  120  150  160  ]

---------- Initializing tighter grid for wavefunction operations ----------
R = 
[    26.5716          0          0  ]
[          0    32.5947          0  ]
[          0          0    35.0769  ]
unit cell volume = 30379.9
G =
[   0.236462          0          0  ]
[          0   0.192767          0  ]
[          0          0   0.179126  ]
Minimum fftbox size, Smin = [  108  132  144  ]
Chosen fftbox size, S = [  108  140  144  ]

---------- Exchange Correlation functional ----------
Initalized PBE GGA exchange.
Initalized PBE GGA correlation.

---------- Setting up pseudopotentials ----------
Width of ionic core gaussian charges (only for fluid interactions / plotting) set to 0.397384

Reading pseudopotential file '/home/guoxy/vasp/jdftx-1.5.0/build/pseudopotentials/GBRV/cu_pbe.uspp':
  Title: Cu.  Created by USPP 7.3.6 on 3-2-2014
  Reference state energy: -201.059491.  19 valence electrons in orbitals:
    |300>  occupation: 2  eigenvalue: -5.020764
    |310>  occupation: 6  eigenvalue: -3.445588
    |320>  occupation: 8  eigenvalue: -0.925168
    |400>  occupation: 2  eigenvalue: -0.567638
    |410>  occupation: 0  eigenvalue: -0.326154
  lMax: 2  lLocal: 3  QijEcut: 6
  6 projectors sampled on a log grid with 613 points:
    l: 0  eig: -5.020767  rCut: 1.4
    l: 0  eig: -0.567640  rCut: 1.4
    l: 1  eig: -3.445589  rCut: 1.55
    l: 1  eig: -0.326157  rCut: 1.55
    l: 2  eig: -0.925170  rCut: 1.5
    l: 2  eig: 1.500000  rCut: 1.5
  Partial core density with radius 0.8
  Transforming core density to a uniform radial grid of dG=0.02 with 1246 points.
  Transforming local potential to a uniform radial grid of dG=0.02 with 1246 points.
  Transforming nonlocal projectors to a uniform radial grid of dG=0.02 with 432 points.
  Transforming density augmentations to a uniform radial grid of dG=0.02 with 1246 points.
  Transforming atomic orbitals to a uniform radial grid of dG=0.02 with 432 points.
  Core radius for overlap checks: 1.55 bohrs.

Reading pseudopotential file '/home/guoxy/vasp/jdftx-1.5.0/build/pseudopotentials/GBRV/h_pbe.uspp':
  Title: H.  Created by USPP 7.3.6 on 2-4-15
  Reference state energy: -0.458849.  1 valence electrons in orbitals:
    |100>  occupation: 1  eigenvalue: -0.238595
  lMax: 0  lLocal: 1  QijEcut: 6
  2 projectors sampled on a log grid with 395 points:
    l: 0  eig: -0.238595  rCut: 1.2
    l: 0  eig: 1.000000  rCut: 1.2
  Transforming local potential to a uniform radial grid of dG=0.02 with 1246 points.
  Transforming nonlocal projectors to a uniform radial grid of dG=0.02 with 432 points.
  Transforming density augmentations to a uniform radial grid of dG=0.02 with 1246 points.
  Transforming atomic orbitals to a uniform radial grid of dG=0.02 with 432 points.
  Core radius for overlap checks: 1.20 bohrs.

Reading pseudopotential file '/home/guoxy/vasp/jdftx-1.5.0/build/pseudopotentials/GBRV/se_pbe.uspp':
  Title: Se.  Created by USPP 7.3.6 on 14-9-2013
  Reference state energy: -21.672887.  6 valence electrons in orbitals:
    |400>  occupation: 2  eigenvalue: -0.635284
    |410>  occupation: 4  eigenvalue: -0.239295
  lMax: 2  lLocal: 3  QijEcut: 5
  6 projectors sampled on a log grid with 625 points:
    l: 0  eig: -0.635278  rCut: 1.5
    l: 0  eig: 0.500000  rCut: 1.5
    l: 1  eig: -0.239295  rCut: 1.5
    l: 1  eig: 0.500000  rCut: 1.5
    l: 2  eig: 0.000000  rCut: 1.8
    l: 2  eig: 1.000000  rCut: 1.8
  Partial core density with radius 1.2
  Transforming core density to a uniform radial grid of dG=0.02 with 1246 points.
  Transforming local potential to a uniform radial grid of dG=0.02 with 1246 points.
  Transforming nonlocal projectors to a uniform radial grid of dG=0.02 with 432 points.
  Transforming density augmentations to a uniform radial grid of dG=0.02 with 1246 points.
  Transforming atomic orbitals to a uniform radial grid of dG=0.02 with 432 points.
  Core radius for overlap checks: 1.80 bohrs.

Reading pseudopotential file '/home/guoxy/vasp/jdftx-1.5.0/build/pseudopotentials/GBRV/o_pbe.uspp':
  Title: O.  Created by USPP 7.3.6 on 3-2-2014
  Reference state energy: -15.894388.  6 valence electrons in orbitals:
    |200>  occupation: 2  eigenvalue: -0.878823
    |210>  occupation: 4  eigenvalue: -0.332131
  lMax: 2  lLocal: 2  QijEcut: 6
  5 projectors sampled on a log grid with 511 points:
    l: 0  eig: -0.878823  rCut: 1.25
    l: 0  eig: 0.000000  rCut: 1.25
    l: 1  eig: -0.332132  rCut: 1.25
    l: 1  eig: 0.000000  rCut: 1.25
    l: 2  eig: 1.000000  rCut: 1.25
  Partial core density with radius 0.7
  Transforming core density to a uniform radial grid of dG=0.02 with 1246 points.
  Transforming local potential to a uniform radial grid of dG=0.02 with 1246 points.
  Transforming nonlocal projectors to a uniform radial grid of dG=0.02 with 432 points.
  Transforming density augmentations to a uniform radial grid of dG=0.02 with 1246 points.
  Transforming atomic orbitals to a uniform radial grid of dG=0.02 with 432 points.
  Core radius for overlap checks: 1.25 bohrs.

Initialized 4 species with 88 total atoms.

Folded 1 k-points by 2x2x1 to 4 k-points.

---------- Setting up k-points, bands, fillings ----------
No reducable k-points. 
Computing the number of bands and number of electrons
Calculating initial fillings.
nElectrons: 552.000000   nBands: 376   nStates: 4

----- Setting up reduced wavefunction bases (one per k-point) -----
average nbasis = 129812.750 , ideal nbasis = 129785.459

---------- Setting up coulomb interaction ----------
Fluid mode embedding: using embedded box, but periodic Coulomb kernel.
(Fluid response is responsible for (approximate) separation between periodic images.)
Setting up double-sized grid for truncated Coulomb potentials:
R = 
[    26.5716          0          0  ]
[          0    32.5947          0  ]
[          0          0    70.1538  ]
unit cell volume = 60759.9
G =
[   0.236462          0          0  ]
[          0   0.192767          0  ]
[          0          0   0.089563  ]
Chosen fftbox size, S = [  120  150  320  ]
Integer grid location selected as the embedding center:
   Grid: [  0  0  80  ]
   Lattice: [  0  0  0.5  ]
   Cartesian: [  0  0  17.5385  ]
Constructing Wigner-Seitz cell: 6 faces (6 quadrilaterals, 0 hexagons)
Range-separation parameter for embedded mesh potentials due to point charges: 0.593647 bohrs.

Initializing van der Waals corrections
	NOTE: vdW corrections apply only for interactions with fluid.
	Cu:  C6:  187.33 Eh-a0^6  R0: 2.952 a0
	 H:  C6:    2.43 Eh-a0^6  R0: 1.892 a0
	Se:  C6:  219.24 Eh-a0^6  R0: 3.347 a0
	 O:  C6:   12.14 Eh-a0^6  R0: 2.536 a0

---------- Setting up ewald sum ----------
Optimum gaussian width for ewald sums = 7.436501 bohr.
Real space sum over 567 unit cells with max indices [  4  4  3  ]
Reciprocal space sum over 8415 terms with max indices [  7  8  16  ]

---------- Allocating electronic variables ----------
Initializing wave functions:  linear combination of atomic orbitals
Cu pseudo-atom occupations:   s ( 2 1 )  p ( 6 0 )  d ( 10 )
H pseudo-atom occupations:   s ( 1 )
Se pseudo-atom occupations:   s ( 2 )  p ( 4 )
O pseudo-atom occupations:   s ( 2 )  p ( 4 )
	FillingsUpdate:  mu: +0.045493456  nElectrons: 552.000000
LCAOMinimize: Iter:   0  F: -2238.6456949584289760  |grad|_K:  2.431e-02  alpha:  1.000e+00
	FillingsUpdate:  mu: +1.241264956  nElectrons: 552.000000
LCAOMinimize: Iter:   1  F: -2363.2781483562712310  |grad|_K:  2.998e-02  alpha:  7.205e-01  linmin:  2.000e-02  cgtest: -8.361e-01  t[s]:     92.10
	FillingsUpdate:  mu: -0.141721079  nElectrons: 552.000000
LCAOMinimize: Iter:   2  F: -2435.5950959556189446  |grad|_K:  1.985e-02  alpha:  3.207e-01  linmin:  5.249e-02  cgtest: -5.928e-01  t[s]:    107.40
LCAOMinimize: 	Bad step direction: g.d > 0.
LCAOMinimize: 	Undoing step.
LCAOMinimize: 	Step failed: resetting search direction.
	FillingsUpdate:  mu: -0.141721079  nElectrons: 552.000000
LCAOMinimize: Iter:   3  F: -2435.5950959556189446  |grad|_K:  1.985e-02  alpha:  0.000e+00
	FillingsUpdate:  mu: -0.309178390  nElectrons: 552.000000
LCAOMinimize: Iter:   4  F: -2455.8088273618704989  |grad|_K:  1.317e-02  alpha:  1.076e-01  linmin: -4.554e-02  cgtest:  7.933e-01  t[s]:    132.41
LCAOMinimize: Encountered beta<0, resetting CG.
LCAOMinimize: 	Predicted alpha/alphaT>3.000000, increasing alphaT to 3.227306e-01.
	FillingsUpdate:  mu: -0.069839382  nElectrons: 552.000000
LCAOMinimize: Iter:   5  F: -2468.6389384608419277  |grad|_K:  1.611e-02  alpha:  1.754e-01  linmin:  4.490e-03  cgtest:  1.297e-01  t[s]:    151.93
LCAOMinimize: 	Wrong curvature in test step, increasing alphaT to 5.260605e-01.
	FillingsUpdate:  mu: +0.014924841  nElectrons: 552.000000
LCAOMinimize: Iter:   6  F: -2520.4611978907646517  |grad|_K:  1.250e-02  alpha: -5.123e-02  linmin: -5.949e-02  cgtest:  3.883e-01  t[s]:    165.99
	FillingsUpdate:  mu: +0.112241650  nElectrons: 552.000000
LCAOMinimize: Iter:   7  F: -2529.7652077766101684  |grad|_K:  6.284e-03  alpha:  8.385e-02  linmin: -4.597e-02  cgtest:  1.126e+00  t[s]:    181.15
LCAOMinimize: Encountered beta<0, resetting CG.
LCAOMinimize: 	Predicted alpha/alphaT>3.000000, increasing alphaT to 2.515366e-01.
LCAOMinimize: 	Step increased F by 2.621195e+02, reducing alpha to 6.656354e-02.
	FillingsUpdate:  mu: +0.084857697  nElectrons: 552.000000
LCAOMinimize: Iter:   8  F: -2531.1943744562677239  |grad|_K:  5.565e-03  alpha:  6.656e-02  linmin: -8.938e-02  cgtest:  9.672e-01  t[s]:    211.19
LCAOMinimize: Encountered beta<0, resetting CG.
LCAOMinimize: 	Predicted alpha/alphaT>3.000000, increasing alphaT to 1.996906e-01.
LCAOMinimize: 	Predicted alpha/alphaT>3.000000, increasing alphaT to 5.990718e-01.
	FillingsUpdate:  mu: +0.080774239  nElectrons: 552.000000
LCAOMinimize: Iter:   9  F: -2531.4222496703509933  |grad|_K:  5.448e-03  alpha:  1.304e-02  linmin: -8.546e-02  cgtest:  9.938e-01  t[s]:    236.14
LCAOMinimize: Encountered beta<0, resetting CG.
LCAOMinimize: 	Predicted alpha/alphaT>3.000000, increasing alphaT to 3.911861e-02.
LCAOMinimize: 	Predicted alpha/alphaT>3.000000, increasing alphaT to 1.173558e-01.
LCAOMinimize: 	Predicted alpha/alphaT>3.000000, increasing alphaT to 3.520675e-01.
LCAOMinimize: 	Step increased F by 2.858775e+02, reducing alpha to 8.439534e-02.
	FillingsUpdate:  mu: +0.054901650  nElectrons: 552.000000
LCAOMinimize: Iter:  10  F: -2532.7769507121934112  |grad|_K:  4.698e-03  alpha:  8.440e-02  linmin: -8.336e-02  cgtest:  9.510e-01  t[s]:    272.61
LCAOMinimize: Encountered beta<0, resetting CG.
LCAOMinimize: 	Predicted alpha/alphaT>3.000000, increasing alphaT to 2.531860e-01.
LCAOMinimize: 	Predicted alpha/alphaT>3.000000, increasing alphaT to 7.595581e-01.
	FillingsUpdate:  mu: +0.052194819  nElectrons: 552.000000
LCAOMinimize: Iter:  11  F: -2532.9326093746117294  |grad|_K:  4.608e-03  alpha:  1.249e-02  linmin: -7.749e-02  cgtest:  9.937e-01  t[s]:    297.83
LCAOMinimize: Encountered beta<0, resetting CG.
LCAOMinimize: 	Predicted alpha/alphaT>3.000000, increasing alphaT to 3.745602e-02.
LCAOMinimize: 	Predicted alpha/alphaT>3.000000, increasing alphaT to 1.123681e-01.
LCAOMinimize: 	Predicted alpha/alphaT>3.000000, increasing alphaT to 3.371042e-01.
LCAOMinimize: 	Step increased F by 2.908735e+02, reducing alpha to 9.031517e-02.
	FillingsUpdate:  mu: +0.032484873  nElectrons: 552.000000
LCAOMinimize: Iter:  12  F: -2533.9683996589847084  |grad|_K:  3.966e-03  alpha:  9.032e-02  linmin: -7.396e-02  cgtest:  9.441e-01  t[s]:    334.56
LCAOMinimize: Encountered beta<0, resetting CG.
LCAOMinimize: 	Predicted alpha/alphaT>3.000000, increasing alphaT to 2.709455e-01.
LCAOMinimize: 	Wrong curvature in test step, increasing alphaT to 8.128365e-01.
	FillingsUpdate:  mu: -0.001333617  nElectrons: 552.000000
LCAOMinimize: Iter:  13  F: -2537.1204765532615966  |grad|_K:  5.185e-03  alpha: -4.500e-01  linmin: -1.206e-01  cgtest:  3.286e-01  t[s]:    355.45
	FillingsUpdate:  mu: +0.001392939  nElectrons: 552.000000
LCAOMinimize: Iter:  14  F: -2538.5427841619161882  |grad|_K:  5.470e-03  alpha:  2.493e-02  linmin: -1.907e-01  cgtest:  7.483e-01  t[s]:    371.20
LCAOMinimize: 	Wrong curvature in test step, increasing alphaT to 7.478832e-02.
	FillingsUpdate:  mu: +0.005914730  nElectrons: 552.000000
LCAOMinimize: Iter:  15  F: -2539.5168047059928540  |grad|_K:  4.985e-03  alpha: -4.326e-01  linmin: -2.345e-01  cgtest:  8.832e-01  t[s]:    386.83
	FillingsUpdate:  mu: +0.008284988  nElectrons: 552.000000
LCAOMinimize: Iter:  16  F: -2539.8949364286440868  |grad|_K:  4.611e-03  alpha:  2.549e-02  linmin: -2.430e-01  cgtest:  9.675e-01  t[s]:    403.26
LCAOMinimize: Encountered beta<0, resetting CG.
LCAOMinimize: 	Predicted alpha/alphaT>3.000000, increasing alphaT to 7.646127e-02.
LCAOMinimize: 	Predicted alpha/alphaT>3.000000, increasing alphaT to 2.293838e-01.
	FillingsUpdate:  mu: -0.151214239  nElectrons: 552.000000
LCAOMinimize: Iter:  17  F: -2541.3327340183673186  |grad|_K:  2.736e-03  alpha:  2.699e-01  linmin:  2.188e-01  cgtest: -4.687e-01  t[s]:    428.61
LCAOMinimize: 	Bad step direction: g.d > 0.
LCAOMinimize: 	Undoing step.
LCAOMinimize: 	Step failed: resetting search direction.
	FillingsUpdate:  mu: -0.151214239  nElectrons: 552.000000
LCAOMinimize: Iter:  18  F: -2541.3327340183673186  |grad|_K:  2.736e-03  alpha:  0.000e+00
	FillingsUpdate:  mu: -0.041565095  nElectrons: 552.000000
LCAOMinimize: Iter:  19  F: -2541.6125230979309890  |grad|_K:  9.146e-04  alpha:  1.677e-01  linmin: -7.031e-03  cgtest: -2.061e-01  t[s]:    456.56
	FillingsUpdate:  mu: -0.022855806  nElectrons: 552.000000
LCAOMinimize: Iter:  20  F: -2541.6620399872158487  |grad|_K:  1.929e-03  alpha:  2.055e-01  linmin:  5.723e-04  cgtest: -2.006e-02  t[s]:    473.25
	FillingsUpdate:  mu: -0.070407889  nElectrons: 552.000000
LCAOMinimize: Iter:  21  F: -2541.7361663841179507  |grad|_K:  6.985e-04  alpha:  5.824e-02  linmin: -2.609e-02  cgtest:  8.945e-01  t[s]:    489.34
LCAOMinimize: Encountered beta<0, resetting CG.
	FillingsUpdate:  mu: -0.077569379  nElectrons: 552.000000
LCAOMinimize: Iter:  22  F: -2541.7408468020958026  |grad|_K:  3.287e-04  alpha:  3.357e-02  linmin: -9.703e-04  cgtest:  9.192e-04  t[s]:    505.83
LCAOMinimize: 	Predicted alpha/alphaT>3.000000, increasing alphaT to 1.007153e-01.
	FillingsUpdate:  mu: -0.086652721  nElectrons: 552.000000
LCAOMinimize: Iter:  23  F: -2541.7468264607882702  |grad|_K:  1.262e-04  alpha:  1.954e-01  linmin:  7.916e-03  cgtest:  1.016e-02  t[s]:    526.76
	FillingsUpdate:  mu: -0.078949223  nElectrons: 552.000000
LCAOMinimize: Iter:  24  F: -2541.7482496365241786  |grad|_K:  1.052e-04  alpha:  3.156e-01  linmin: -1.755e-03  cgtest:  1.551e-02  t[s]:    542.86
	FillingsUpdate:  mu: -0.079059763  nElectrons: 552.000000
LCAOMinimize: Iter:  25  F: -2541.7484026967376849  |grad|_K:  8.460e-05  alpha:  4.785e-02  linmin: -6.959e-04  cgtest: -1.322e-02  t[s]:    559.46
LCAOMinimize: 	Predicted alpha/alphaT>3.000000, increasing alphaT to 1.435540e-01.
	FillingsUpdate:  mu: -0.082307723  nElectrons: 552.000000
LCAOMinimize: Iter:  26  F: -2541.7487406678701518  |grad|_K:  2.429e-05  alpha:  1.656e-01  linmin:  3.848e-03  cgtest:  4.828e-02  t[s]:    580.39
	FillingsUpdate:  mu: -0.081969075  nElectrons: 552.000000
LCAOMinimize: Iter:  27  F: -2541.7487937664495803  |grad|_K:  3.797e-05  alpha:  3.180e-01  linmin:  1.271e-04  cgtest:  2.630e-03  t[s]:    596.36
	FillingsUpdate:  mu: -0.081903246  nElectrons: 552.000000
LCAOMinimize: Iter:  28  F: -2541.7488075005062456  |grad|_K:  5.869e-06  alpha:  3.349e-02  linmin: -2.282e-03  cgtest:  2.916e-02  t[s]:    612.94
LCAOMinimize: 	Predicted alpha/alphaT>3.000000, increasing alphaT to 1.004751e-01.
	FillingsUpdate:  mu: -0.082213517  nElectrons: 552.000000
LCAOMinimize: Iter:  29  F: -2541.7488100453388142  |grad|_K:  3.592e-06  alpha:  2.596e-01  linmin:  3.553e-04  cgtest: -4.756e-03  t[s]:    633.76
	FillingsUpdate:  mu: -0.082160218  nElectrons: 552.000000
LCAOMinimize: Iter:  30  F: -2541.7488104641679456  |grad|_K:  5.626e-06  alpha:  1.143e-01  linmin: -1.593e-06  cgtest:  9.235e-04  t[s]:    650.38
LCAOMinimize: None of the convergence criteria satisfied after 30 iterations.
----- createFluidSolver() ----- (Fluid-side solver setup)
   Initializing fluid molecule 'H2O'
     Initializing site 'O'
       Electron density: proportional to exp(-r/0.36935)*erfc((r-0.51523)/0.36823) with norm 6.826
       Charge density: gaussian nuclear width 0.478731 with net site charge 0.826
       Polarizability: cuspless exponential with width 0.32 and norm 3.73
       Hard sphere radius: 2.57003 bohrs
       Positions in reference frame:
         [ +0.000000 +0.000000 +0.000000 ]
     Initializing site 'H'
       Electron density: proportional to exp(-r/0.34641)*erfc((r-0)/0.390882) with norm 0.587
       Charge density: gaussian nuclear width 0.377945 with net site charge -0.413
       Polarizability: cuspless exponential with width 0.39 and norm 3.3
       Positions in reference frame:
         [ +0.000000 -1.441945 +1.122523 ]
         [ +0.000000 +1.441945 +1.122523 ]
     Net charge: 0   dipole magnitude: 0.927204
     Initializing spherical shell mfKernel with radius 2.61727 Bohr
     deltaS corrections:
       site 'O': -7.54299
       site 'H': -6.83917
   Initializing fluid molecule 'Na+'
     Initializing site 'Na'
       Electron density: proportional to exp(-r/0.19682)*erfc((r-0.71491)/0.41314) with norm 8.1383
       Charge density: gaussian nuclear width 0.365347 with net site charge -1
       Hard sphere radius: 1.86327 bohrs
       Positions in reference frame:
         [ +0.000000 +0.000000 +0.000000 ]
     Net charge: -1   dipole magnitude: 0
     Initializing gaussian mfKernel with width: 1.55004 Bohr
     deltaS corrections:
       site 'Na': -22.3555
   Initializing fluid molecule 'F-'
     Initializing site 'F'
       Electron density: proportional to exp(-r/0.38886)*erfc((r-0)/0.438782) with norm 8
       Charge density: gaussian nuclear width 0.374796 with net site charge 1
       Hard sphere radius: 2.39995 bohrs
       Positions in reference frame:
         [ +0.000000 +0.000000 +0.000000 ]
     Net charge: 1   dipole magnitude: 0
     Initializing gaussian mfKernel with width: 1.59012 Bohr
     deltaS corrections:
       site 'F': -9.04335

Correction to mu due to finite nuclear width = -0.00901408
   Cavity determined by nc: 0.00142 and sigma: 0.707107
   Nonlocal vdW cavity from gaussian model electron density with norm = 8 and sigma = 0.993594 bohr
   Charge asymmetry in cavity with sensitivity pCavity = 36.5 e-bohr/Eh
   Electrostatic cavity expanded by eta = 1.46 bohrs
   Weighted density cavitation model constrained by Nbulk: 0.0049383 bohr^-3, Pvap: 3.14029 kPa, Rvdw: 2.61727 bohr and sigmaBulk: 4.62e-05 Eh/bohr^2 at T: 298 K.
   Weighted density dispersion model using vdW pair potentials with single solvent site with sqrtC6eff: 0.77 SI.


---- Citations for features of the code used in this run ----

   Software package:
      R. Sundararaman, K. Letchworth-Weaver, K.A. Schwarz, D. Gunceler, Y. Ozhabes and T.A. Arias, 'JDFTx: software for joint density-functional theory', SoftwareX 6, 278 (2017)

   gga-PBE exchange-correlation functional:
      J.P. Perdew, K. Burke and M. Ernzerhof, Phys. Rev. Lett. 77, 3865 (1996)

   Pseudopotentials:
      KF Garrity, JW Bennett, KM Rabe and D Vanderbilt, Comput. Mater. Sci. 81, 446 (2014)

   Truncated Coulomb potentials:
      R. Sundararaman and T.A. Arias, Phys. Rev. B 87, 165122 (2013)

   Van der Waals correction pair-potentials:
      S. Grimme, J. Comput. Chem. 27, 1787 (2006)

   Charge-asymmetric nonlocally-determined local-electric (CANDLE) solvation model:
      R. Sundararaman and W.A. Goddard III, J. Chem. Phys. 142, 064107 (2015)

   Total energy minimization with Auxiliary Hamiltonian:
      C. Freysoldt, S. Boeck, and J. Neugebauer, Phys. Rev. B 79, 241103(R) (2009)

This list may not be complete. Please suggest additional citations or
report any other bugs at https://github.com/shankar1729/jdftx/issues

Initialization completed successfully at t[s]:    656.85

Fluid solver invoked on fresh (partially random / LCAO) wavefunctions
Running a vacuum solve first:

-------- Initial electronic minimization -----------
	FillingsUpdate:  mu: -0.082160218  nElectrons: 552.000000
ElecMinimize: Iter:   0  F: -2541.748810464226608  |grad|_K:  2.631e-04  alpha:  1.000e+00
	FillingsUpdate:  mu: -0.214330277  nElectrons: 552.000000
	SubspaceRotationAdjust: set factor to 1
ElecMinimize: Iter:   1  F: -2543.900745417267444  |grad|_K:  2.646e-04  alpha:  1.661e-01  linmin:  1.709e-04  t[s]:    707.42
	FillingsUpdate:  mu: -0.135675940  nElectrons: 552.000000
	SubspaceRotationAdjust: set factor to 1.02
ElecMinimize: Iter:   2  F: -2546.905627625652414  |grad|_K:  1.078e-04  alpha:  2.236e-01  linmin: -3.489e-04  t[s]:    738.42
	FillingsUpdate:  mu: -0.031211083  nElectrons: 552.000000
	SubspaceRotationAdjust: set factor to 1.19
ElecMinimize: Iter:   3  F: -2547.461314066180421  |grad|_K:  1.287e-04  alpha:  2.234e-01  linmin: -5.480e-06  t[s]:    769.32
	FillingsUpdate:  mu: -0.079834188  nElectrons: 552.000000
	SubspaceRotationAdjust: set factor to 0.917
ElecMinimize: Iter:   4  F: -2547.863111346995083  |grad|_K:  1.159e-04  alpha:  1.206e-01  linmin: -1.475e-05  t[s]:    800.31
	FillingsUpdate:  mu: -0.142341399  nElectrons: 552.000000
	SubspaceRotationAdjust: set factor to 0.561
ElecMinimize: Iter:   5  F: -2547.961551156534824  |grad|_K:  5.308e-05  alpha:  3.548e-02  linmin: -8.632e-05  t[s]:    831.43
ElecMinimize: 	Predicted alpha/alphaT>3.000000, increasing alphaT to 1.064295e-01.
	FillingsUpdate:  mu: -0.166472540  nElectrons: 552.000000
	SubspaceRotationAdjust: set factor to 0.687
ElecMinimize: Iter:   6  F: -2548.099386091756969  |grad|_K:  5.666e-05  alpha:  2.436e-01  linmin:  8.004e-07  t[s]:    869.56
	FillingsUpdate:  mu: -0.140921095  nElectrons: 552.000000
	SubspaceRotationAdjust: set factor to 0.64
ElecMinimize: Iter:   7  F: -2548.174356359080775  |grad|_K:  3.729e-05  alpha:  1.195e-01  linmin: -2.076e-07  t[s]:    900.44
	FillingsUpdate:  mu: -0.134850750  nElectrons: 552.000000
	SubspaceRotationAdjust: set factor to 0.521
ElecMinimize: Iter:   8  F: -2548.205307387504945  |grad|_K:  3.651e-05  alpha:  1.139e-01  linmin: -2.427e-05  t[s]:    931.07
	FillingsUpdate:  mu: -0.147063400  nElectrons: 552.000000
	SubspaceRotationAdjust: set factor to 0.538
ElecMinimize: Iter:   9  F: -2548.229458397350754  |grad|_K:  1.522e-05  alpha:  9.204e-02  linmin: -1.266e-05  t[s]:    961.62
	FillingsUpdate:  mu: -0.157187386  nElectrons: 552.000000
	SubspaceRotationAdjust: set factor to 0.548
ElecMinimize: Iter:  10  F: -2548.241337998846120  |grad|_K:  2.168e-05  alpha:  2.622e-01  linmin:  5.461e-06  t[s]:    991.96
	FillingsUpdate:  mu: -0.152416057  nElectrons: 552.000000
	SubspaceRotationAdjust: set factor to 0.433
ElecMinimize: Iter:  11  F: -2548.252591303791178  |grad|_K:  1.396e-05  alpha:  1.225e-01  linmin: -2.909e-06  t[s]:   1022.83
	FillingsUpdate:  mu: -0.147701573  nElectrons: 552.000000
	SubspaceRotationAdjust: set factor to 0.412
ElecMinimize: Iter:  12  F: -2548.255712037731428  |grad|_K:  8.375e-06  alpha:  8.180e-02  linmin: -5.169e-08  t[s]:   1053.38
	FillingsUpdate:  mu: -0.149737270  nElectrons: 552.000000
	SubspaceRotationAdjust: set factor to 0.467
ElecMinimize: Iter:  13  F: -2548.258752788891343  |grad|_K:  7.100e-06  alpha:  2.219e-01  linmin:  3.891e-06  t[s]:   1084.24
	FillingsUpdate:  mu: -0.153260790  nElectrons: 552.000000
	SubspaceRotationAdjust: set factor to 0.426
ElecMinimize: Iter:  14  F: -2548.260326448510568  |grad|_K:  7.848e-06  alpha:  1.598e-01  linmin:  1.379e-07  t[s]:   1114.95
	FillingsUpdate:  mu: -0.153610235  nElectrons: 552.000000
	SubspaceRotationAdjust: set factor to 0.407
ElecMinimize: Iter:  15  F: -2548.261888629333953  |grad|_K:  4.204e-06  alpha:  1.297e-01  linmin:  6.727e-07  t[s]:   1145.40
	FillingsUpdate:  mu: -0.151313896  nElectrons: 552.000000
	SubspaceRotationAdjust: set factor to 0.423
ElecMinimize: Iter:  16  F: -2548.262299695524234  |grad|_K:  3.283e-06  alpha:  1.190e-01  linmin:  5.929e-08  t[s]:   1177.62
	FillingsUpdate:  mu: -0.151509605  nElectrons: 552.000000
	SubspaceRotationAdjust: set factor to 0.44
ElecMinimize: Iter:  17  F: -2548.262852437912443  |grad|_K:  3.460e-06  alpha:  2.625e-01  linmin:  6.970e-07  t[s]:   1209.12
	FillingsUpdate:  mu: -0.152261146  nElectrons: 552.000000
	SubspaceRotationAdjust: set factor to 0.368
ElecMinimize: Iter:  18  F: -2548.263091330583848  |grad|_K:  2.387e-06  alpha:  1.020e-01  linmin: -8.905e-07  t[s]:   1239.81
	FillingsUpdate:  mu: -0.151948549  nElectrons: 552.000000
	SubspaceRotationAdjust: set factor to 0.381
ElecMinimize: Iter:  19  F: -2548.263264451069517  |grad|_K:  1.817e-06  alpha:  1.553e-01  linmin:  3.078e-07  t[s]:   1270.82
	FillingsUpdate:  mu: -0.151461052  nElectrons: 552.000000
	SubspaceRotationAdjust: set factor to 0.39
ElecMinimize: Iter:  20  F: -2548.263381171670517  |grad|_K:  1.552e-06  alpha:  1.808e-01  linmin:  1.762e-07  t[s]:   1302.62
	FillingsUpdate:  mu: -0.152042359  nElectrons: 552.000000
	SubspaceRotationAdjust: set factor to 0.359
ElecMinimize: Iter:  21  F: -2548.263455504344165  |grad|_K:  1.508e-06  alpha:  1.579e-01  linmin:  5.918e-08  t[s]:   1333.69
	FillingsUpdate:  mu: -0.152243541  nElectrons: 552.000000
	SubspaceRotationAdjust: set factor to 0.344
ElecMinimize: Iter:  22  F: -2548.263518240431949  |grad|_K:  9.908e-07  alpha:  1.411e-01  linmin:  9.028e-08  t[s]:   1364.72
	FillingsUpdate:  mu: -0.151621064  nElectrons: 552.000000
	SubspaceRotationAdjust: set factor to 0.349
ElecMinimize: Iter:  23  F: -2548.263549711981796  |grad|_K:  1.008e-06  alpha:  1.640e-01  linmin:  3.165e-08  t[s]:   1395.37
	FillingsUpdate:  mu: -0.151767100  nElectrons: 552.000000
	SubspaceRotationAdjust: set factor to 0.351
ElecMinimize: Iter:  24  F: -2548.263599828263068  |grad|_K:  9.089e-07  alpha:  2.525e-01  linmin:  2.569e-07  t[s]:   1426.40
	FillingsUpdate:  mu: -0.152117729  nElectrons: 552.000000
	SubspaceRotationAdjust: set factor to 0.315
ElecMinimize: Iter:  25  F: -2548.263617843752854  |grad|_K:  7.406e-07  alpha:  1.116e-01  linmin: -8.011e-08  t[s]:   1457.33
	FillingsUpdate:  mu: -0.152056049  nElectrons: 552.000000
	SubspaceRotationAdjust: set factor to 0.333
ElecMinimize: Iter:  26  F: -2548.263644657505210  |grad|_K:  6.851e-07  alpha:  2.501e-01  linmin:  1.659e-07  t[s]:   1487.87
	FillingsUpdate:  mu: -0.151675514  nElectrons: 552.000000
	SubspaceRotationAdjust: set factor to 0.327
ElecMinimize: Iter:  27  F: -2548.263661215350112  |grad|_K:  7.154e-07  alpha:  1.806e-01  linmin:  1.183e-08  t[s]:   1519.80
	FillingsUpdate:  mu: -0.151831218  nElectrons: 552.000000
	SubspaceRotationAdjust: set factor to 0.311
ElecMinimize: Iter:  28  F: -2548.263678931628419  |grad|_K:  6.425e-07  alpha:  1.771e-01  linmin:  5.287e-08  t[s]:   1550.49
	FillingsUpdate:  mu: -0.152077785  nElectrons: 552.000000
	SubspaceRotationAdjust: set factor to 0.309
ElecMinimize: Iter:  29  F: -2548.263691765049316  |grad|_K:  5.629e-07  alpha:  1.591e-01  linmin:  3.387e-08  t[s]:   1582.03
	FillingsUpdate:  mu: -0.151787676  nElectrons: 552.000000
	SubspaceRotationAdjust: set factor to 0.32
ElecMinimize: Iter:  30  F: -2548.263704519646581  |grad|_K:  5.350e-07  alpha:  2.060e-01  linmin:  2.236e-08  t[s]:   1612.94
	FillingsUpdate:  mu: -0.151835254  nElectrons: 552.000000
	SubspaceRotationAdjust: set factor to 0.316
ElecMinimize: Iter:  31  F: -2548.263713423255467  |grad|_K:  4.543e-07  alpha:  1.591e-01  linmin:  8.674e-09  t[s]:   1644.77
	FillingsUpdate:  mu: -0.152044304  nElectrons: 552.000000
	SubspaceRotationAdjust: set factor to 0.306
ElecMinimize: Iter:  32  F: -2548.263720635057325  |grad|_K:  4.831e-07  alpha:  1.787e-01  linmin:  1.823e-08  t[s]:   1675.60
	FillingsUpdate:  mu: -0.151922946  nElectrons: 552.000000
	SubspaceRotationAdjust: set factor to 0.335
ElecMinimize: Iter:  33  F: -2548.263728646375057  |grad|_K:  3.178e-07  alpha:  1.756e-01  linmin:  1.280e-08  t[s]:   1706.96
	FillingsUpdate:  mu: -0.151785349  nElectrons: 552.000000
	SubspaceRotationAdjust: set factor to 0.335
ElecMinimize: Iter:  34  F: -2548.263732687102674  |grad|_K:  3.636e-07  alpha:  2.046e-01  linmin:  8.925e-09  t[s]:   1738.66
	FillingsUpdate:  mu: -0.151879020  nElectrons: 552.000000
	SubspaceRotationAdjust: set factor to 0.324
ElecMinimize: Iter:  35  F: -2548.263736064499426  |grad|_K:  2.435e-07  alpha:  1.307e-01  linmin: -7.930e-09  t[s]:   1769.46
	FillingsUpdate:  mu: -0.152029271  nElectrons: 552.000000
	SubspaceRotationAdjust: set factor to 0.341
ElecMinimize: Iter:  36  F: -2548.263738667681992  |grad|_K:  2.592e-07  alpha:  2.247e-01  linmin:  6.108e-08  t[s]:   1800.67
	FillingsUpdate:  mu: -0.151903293  nElectrons: 552.000000
	SubspaceRotationAdjust: set factor to 0.354
ElecMinimize: Iter:  37  F: -2548.263740467579282  |grad|_K:  1.733e-07  alpha:  1.371e-01  linmin: -1.457e-08  t[s]:   1831.50
	FillingsUpdate:  mu: -0.151851537  nElectrons: 552.000000
	SubspaceRotationAdjust: set factor to 0.343
ElecMinimize: Iter:  38  F: -2548.263741584974014  |grad|_K:  1.869e-07  alpha:  1.903e-01  linmin:  2.777e-08  t[s]:   1862.83
	FillingsUpdate:  mu: -0.151919503  nElectrons: 552.000000
	SubspaceRotationAdjust: set factor to 0.355
ElecMinimize: Iter:  39  F: -2548.263742469919634  |grad|_K:  1.157e-07  alpha:  1.295e-01  linmin: -9.123e-10  t[s]:   1894.20
	FillingsUpdate:  mu: -0.151924509  nElectrons: 552.000000
	SubspaceRotationAdjust: set factor to 0.372
ElecMinimize: Iter:  40  F: -2548.263743041954967  |grad|_K:  1.177e-07  alpha:  2.187e-01  linmin:  4.775e-08  t[s]:   1925.37
	FillingsUpdate:  mu: -0.151878679  nElectrons: 552.000000
	SubspaceRotationAdjust: set factor to 0.355
ElecMinimize: Iter:  41  F: -2548.263743449970207  |grad|_K:  9.506e-08  alpha:  1.506e-01  linmin: -7.386e-10  t[s]:   1956.32
	FillingsUpdate:  mu: -0.151887128  nElectrons: 552.000000
	SubspaceRotationAdjust: set factor to 0.342
ElecMinimize: Iter:  42  F: -2548.263743673228873  |grad|_K:  7.202e-08  alpha:  1.264e-01  linmin: -1.055e-08  t[s]:   1987.78
	FillingsUpdate:  mu: -0.151925851  nElectrons: 552.000000
	SubspaceRotationAdjust: set factor to 0.358
ElecMinimize: Iter:  43  F: -2548.263743895992320  |grad|_K:  6.662e-08  alpha:  2.196e-01  linmin:  1.026e-08  t[s]:   2018.01
	FillingsUpdate:  mu: -0.151896767  nElectrons: 552.000000
	SubspaceRotationAdjust: set factor to 0.36
ElecMinimize: Iter:  44  F: -2548.263744011045674  |grad|_K:  4.932e-08  alpha:  1.326e-01  linmin: -1.056e-08  t[s]:   2048.32
	FillingsUpdate:  mu: -0.151886832  nElectrons: 552.000000
	SubspaceRotationAdjust: set factor to 0.344
ElecMinimize: Iter:  45  F: -2548.263744107847742  |grad|_K:  5.146e-08  alpha:  2.035e-01  linmin:  3.060e-08  t[s]:   2079.58
	FillingsUpdate:  mu: -0.151908906  nElectrons: 552.000000
	SubspaceRotationAdjust: set factor to 0.338
ElecMinimize: Iter:  46  F: -2548.263744169075380  |grad|_K:  3.406e-08  alpha:  1.184e-01  linmin: -1.234e-08  t[s]:   2110.22
	FillingsUpdate:  mu: -0.151913894  nElectrons: 552.000000
	SubspaceRotationAdjust: set factor to 0.355
ElecMinimize: Iter:  47  F: -2548.263744236277489  |grad|_K:  3.523e-08  alpha:  2.957e-01  linmin: -3.804e-08  t[s]:   2141.51
	FillingsUpdate:  mu: -0.151897257  nElectrons: 552.000000
	SubspaceRotationAdjust: set factor to 0.331
ElecMinimize: Iter:  48  F: -2548.263744263967965  |grad|_K:  2.718e-08  alpha:  1.139e-01  linmin: -2.516e-09  t[s]:   2172.42
	FillingsUpdate:  mu: -0.151889057  nElectrons: 552.000000
	SubspaceRotationAdjust: set factor to 0.328
ElecMinimize: Iter:  49  F: -2548.263744298620622  |grad|_K:  2.824e-08  alpha:  2.392e-01  linmin: -8.064e-08  t[s]:   2205.27
	FillingsUpdate:  mu: -0.151903728  nElectrons: 552.000000
	SubspaceRotationAdjust: set factor to 0.341
ElecMinimize: Iter:  50  F: -2548.263744319481702  |grad|_K:  2.089e-08  alpha:  1.332e-01  linmin:  1.450e-08  t[s]:   2236.19
	FillingsUpdate:  mu: -0.151903112  nElectrons: 552.000000
	SubspaceRotationAdjust: set factor to 0.345
ElecMinimize: Iter:  51  F: -2548.263744341746587  |grad|_K:  2.325e-08  alpha:  2.618e-01  linmin:  6.224e-08  t[s]:   2268.07
	FillingsUpdate:  mu: -0.151897491  nElectrons: 552.000000
	SubspaceRotationAdjust: set factor to 0.322
ElecMinimize: Iter:  52  F: -2548.263744355669587  |grad|_K:  1.907e-08  alpha:  1.322e-01  linmin: -9.572e-09  t[s]:   2299.32
	FillingsUpdate:  mu: -0.151901736  nElectrons: 552.000000
	SubspaceRotationAdjust: set factor to 0.332
ElecMinimize: Iter:  53  F: -2548.263744368760399  |grad|_K:  1.637e-08  alpha:  1.828e-01  linmin: -9.955e-08  t[s]:   2330.76
	FillingsUpdate:  mu: -0.151905396  nElectrons: 552.000000
	SubspaceRotationAdjust: set factor to 0.348
ElecMinimize: Iter:  54  F: -2548.263744378581578  |grad|_K:  1.435e-08  alpha:  1.871e-01  linmin:  4.831e-08  t[s]:   2361.87
	FillingsUpdate:  mu: -0.151899958  nElectrons: 552.000000
	SubspaceRotationAdjust: set factor to 0.335
ElecMinimize: Iter:  55  F: -2548.263744385644259  |grad|_K:  1.524e-08  alpha:  1.752e-01  linmin:  1.543e-08  t[s]:   2392.37
ElecMinimize: Converged (|Delta F|<1.000000e-08 for 2 iters).
Setting wave functions to eigenvectors of Hamiltonian
Vacuum energy after initial minimize, F = -2548.263744385644259

	Linear fluid (dielectric constant: 78.4, screening length: 5.74355 Bohr) occupying 0.796771 of unit cell:	Completed after 20 iterations at t[s]:   2400.28

-------- Electronic minimization -----------
	Linear fluid (dielectric constant: 78.4, screening length: 5.74355 Bohr) occupying 0.796771 of unit cell:	Completed after 0 iterations at t[s]:   2406.54
	FillingsUpdate:  mu: -0.186049383  nElectrons: 552.000000
ElecMinimize: Iter:   0  F: -2548.282583624188192  |grad|_K:  5.169e-06  alpha:  1.000e+00
	Linear fluid (dielectric constant: 78.4, screening length: 5.74355 Bohr) occupying 0.797285 of unit cell:	Completed after 14 iterations at t[s]:   2435.07
	Linear fluid (dielectric constant: 78.4, screening length: 5.74355 Bohr) occupying 0.797281 of unit cell:	Completed after 0 iterations at t[s]:   2445.45
	FillingsUpdate:  mu: -0.188092529  nElectrons: 552.000000
	SubspaceRotationAdjust: set factor to 0.394
ElecMinimize: Iter:   1  F: -2548.287762534364902  |grad|_K:  4.108e-06  alpha:  9.915e-01  linmin: -8.869e-07  t[s]:   2457.68
	Linear fluid (dielectric constant: 78.4, screening length: 5.74355 Bohr) occupying 0.797715 of unit cell:	Completed after 14 iterations at t[s]:   2471.02
	Linear fluid (dielectric constant: 78.4, screening length: 5.74355 Bohr) occupying 0.797404 of unit cell:	Completed after 12 iterations at t[s]:   2482.81
	FillingsUpdate:  mu: -0.185967682  nElectrons: 552.000000
	SubspaceRotationAdjust: set factor to 0.403
ElecMinimize: Iter:   2  F: -2548.288671665597121  |grad|_K:  4.730e-06  alpha:  2.759e-01  linmin:  7.014e-07  t[s]:   2495.05
	Linear fluid (dielectric constant: 78.4, screening length: 5.74355 Bohr) occupying 0.797589 of unit cell:	Completed after 11 iterations at t[s]:   2507.80
	Linear fluid (dielectric constant: 78.4, screening length: 5.74355 Bohr) occupying 0.797492 of unit cell:	Completed after 8 iterations at t[s]:   2519.03
	FillingsUpdate:  mu: -0.186461029  nElectrons: 552.000000
	SubspaceRotationAdjust: set factor to 0.365
ElecMinimize: Iter:   3  F: -2548.289243815246664  |grad|_K:  3.593e-06  alpha:  1.309e-01  linmin:  2.263e-07  t[s]:   2530.93
	Linear fluid (dielectric constant: 78.4, screening length: 5.74355 Bohr) occupying 0.797552 of unit cell:	Completed after 7 iterations at t[s]:   2543.32
	Linear fluid (dielectric constant: 78.4, screening length: 5.74355 Bohr) occupying 0.797586 of unit cell:	Completed after 4 iterations at t[s]:   2554.10
	FillingsUpdate:  mu: -0.186920955  nElectrons: 552.000000
	SubspaceRotationAdjust: set factor to 0.339
ElecMinimize: Iter:   4  F: -2548.289763546691574  |grad|_K:  3.143e-06  alpha:  2.062e-01  linmin:  5.289e-07  t[s]:   2574.85
	Linear fluid (dielectric constant: 78.4, screening length: 5.74355 Bohr) occupying 0.797664 of unit cell:	Completed after 9 iterations at t[s]:   2587.39
	Linear fluid (dielectric constant: 78.4, screening length: 5.74355 Bohr) occupying 0.797628 of unit cell:	Completed after 4 iterations at t[s]:   2596.91
	FillingsUpdate:  mu: -0.185351934  nElectrons: 552.000000
	SubspaceRotationAdjust: set factor to 0.375
ElecMinimize: Iter:   5  F: -2548.289976888936508  |grad|_K:  1.574e-06  alpha:  1.111e-01  linmin:  5.152e-07  t[s]:   2608.99
	Linear fluid (dielectric constant: 78.4, screening length: 5.74355 Bohr) occupying 0.797641 of unit cell:	Completed after 2 iterations at t[s]:   2620.43
ElecMinimize: 	Predicted alpha/alphaT>3.000000, increasing alphaT to 3.332569e-01.
	Linear fluid (dielectric constant: 78.4, screening length: 5.74355 Bohr) occupying 0.797664 of unit cell:	Completed after 2 iterations at t[s]:   2630.93
	Linear fluid (dielectric constant: 78.4, screening length: 5.74355 Bohr) occupying 0.797677 of unit cell:	Completed after 2 iterations at t[s]:   2641.85
	FillingsUpdate:  mu: -0.185101825  nElectrons: 552.000000
	SubspaceRotationAdjust: set factor to 0.406
ElecMinimize: Iter:   6  F: -2548.290197729742886  |grad|_K:  1.306e-06  alpha:  4.566e-01  linmin: -5.384e-08  t[s]:   2653.55
	Linear fluid (dielectric constant: 78.4, screening length: 5.74355 Bohr) occupying 0.797706 of unit cell:	Completed after 4 iterations at t[s]:   2666.03
	Linear fluid (dielectric constant: 78.4, screening length: 5.74355 Bohr) occupying 0.797685 of unit cell:	Completed after 4 iterations at t[s]:   2677.16
	FillingsUpdate:  mu: -0.185571427  nElectrons: 552.000000
	SubspaceRotationAdjust: set factor to 0.425
ElecMinimize: Iter:   7  F: -2548.290239325734547  |grad|_K:  9.423e-07  alpha:  1.251e-01  linmin:  5.073e-07  t[s]:   2689.49
	Linear fluid (dielectric constant: 78.4, screening length: 5.74355 Bohr) occupying 0.797689 of unit cell:	Completed after 2 iterations at t[s]:   2701.18
	Linear fluid (dielectric constant: 78.4, screening length: 5.74355 Bohr) occupying 0.797692 of unit cell:	Completed after 2 iterations at t[s]:   2711.59
	FillingsUpdate:  mu: -0.185398807  nElectrons: 552.000000
	SubspaceRotationAdjust: set factor to 0.429
ElecMinimize: Iter:   8  F: -2548.290284133812293  |grad|_K:  8.968e-07  alpha:  2.579e-01  linmin: -1.482e-06  t[s]:   2723.86
	Linear fluid (dielectric constant: 78.4, screening length: 5.74355 Bohr) occupying 0.797697 of unit cell:	Completed after 4 iterations at t[s]:   2735.94
	Linear fluid (dielectric constant: 78.4, screening length: 5.74355 Bohr) occupying 0.797695 of unit cell:	Completed after 3 iterations at t[s]:   2746.48
	FillingsUpdate:  mu: -0.185300502  nElectrons: 552.000000
	SubspaceRotationAdjust: set factor to 0.353
ElecMinimize: Iter:   9  F: -2548.290302566791979  |grad|_K:  6.633e-07  alpha:  1.165e-01  linmin:  1.941e-06  t[s]:   2758.10
	Linear fluid (dielectric constant: 78.4, screening length: 5.74355 Bohr) occupying 0.797695 of unit cell:	Completed after 2 iterations at t[s]:   2769.77
	Linear fluid (dielectric constant: 78.4, screening length: 5.74355 Bohr) occupying 0.797695 of unit cell:	Completed after 0 iterations at t[s]:   2779.97
	FillingsUpdate:  mu: -0.185408968  nElectrons: 552.000000
	SubspaceRotationAdjust: set factor to 0.4
ElecMinimize: Iter:  10  F: -2548.290314772104011  |grad|_K:  3.760e-07  alpha:  1.409e-01  linmin: -3.750e-05  t[s]:   2791.96
	Linear fluid (dielectric constant: 78.4, screening length: 5.74355 Bohr) occupying 0.797695 of unit cell:	Completed after 2 iterations at t[s]:   2804.09
	Linear fluid (dielectric constant: 78.4, screening length: 5.74355 Bohr) occupying 0.797695 of unit cell:	Completed after 0 iterations at t[s]:   2814.32
	FillingsUpdate:  mu: -0.185436446  nElectrons: 552.000000
	SubspaceRotationAdjust: set factor to 0.415
ElecMinimize: Iter:  11  F: -2548.290319768334939  |grad|_K:  3.676e-07  alpha:  1.662e-01  linmin: -6.375e-05  t[s]:   2826.50
	Linear fluid (dielectric constant: 78.4, screening length: 5.74355 Bohr) occupying 0.797694 of unit cell:	Completed after 2 iterations at t[s]:   2838.36
	Linear fluid (dielectric constant: 78.4, screening length: 5.74355 Bohr) occupying 0.797694 of unit cell:	Completed after 0 iterations at t[s]:   2848.58
	FillingsUpdate:  mu: -0.185371901  nElectrons: 552.000000
	SubspaceRotationAdjust: set factor to 0.368
ElecMinimize: Iter:  12  F: -2548.290324020088519  |grad|_K:  3.991e-07  alpha:  1.428e-01  linmin:  3.089e-05  t[s]:   2860.84
	Linear fluid (dielectric constant: 78.4, screening length: 5.74355 Bohr) occupying 0.797693 of unit cell:	Completed after 2 iterations at t[s]:   2873.07
	Linear fluid (dielectric constant: 78.4, screening length: 5.74355 Bohr) occupying 0.797693 of unit cell:	Completed after 0 iterations at t[s]:   2882.83
	FillingsUpdate:  mu: -0.185368704  nElectrons: 552.000000
	SubspaceRotationAdjust: set factor to 0.399
ElecMinimize: Iter:  13  F: -2548.290327246837478  |grad|_K:  1.933e-07  alpha:  1.158e-01  linmin:  1.245e-06  t[s]:   2894.78
	Linear fluid (dielectric constant: 78.4, screening length: 5.74355 Bohr) occupying 0.797692 of unit cell:	Completed after 0 iterations at t[s]:   2906.20
	Linear fluid (dielectric constant: 78.4, screening length: 5.74355 Bohr) occupying 0.797692 of unit cell:	Completed after 2 iterations at t[s]:   2917.04
	FillingsUpdate:  mu: -0.185444017  nElectrons: 552.000000
	SubspaceRotationAdjust: set factor to 0.409
ElecMinimize: Iter:  14  F: -2548.290328046646664  |grad|_K:  2.015e-07  alpha:  1.668e-01  linmin:  1.021e-04  t[s]:   2929.08
	Linear fluid (dielectric constant: 78.4, screening length: 5.74355 Bohr) occupying 0.797691 of unit cell:	Completed after 0 iterations at t[s]:   2941.72
	Linear fluid (dielectric constant: 78.4, screening length: 5.74355 Bohr) occupying 0.797690 of unit cell:	Completed after 0 iterations at t[s]:   2951.86
	FillingsUpdate:  mu: -0.185447460  nElectrons: 552.000000
	SubspaceRotationAdjust: set factor to 0.445
ElecMinimize: Iter:  15  F: -2548.290329006279535  |grad|_K:  1.815e-07  alpha:  1.831e-01  linmin: -2.996e-06  t[s]:   2964.13
	Linear fluid (dielectric constant: 78.4, screening length: 5.74355 Bohr) occupying 0.797689 of unit cell:	Completed after 1 iterations at t[s]:   2975.93
	Linear fluid (dielectric constant: 78.4, screening length: 5.74355 Bohr) occupying 0.797690 of unit cell:	Completed after 2 iterations at t[s]:   2986.16
	FillingsUpdate:  mu: -0.185418778  nElectrons: 552.000000
	SubspaceRotationAdjust: set factor to 0.398
ElecMinimize: Iter:  16  F: -2548.290329061534976  |grad|_K:  2.135e-07  alpha:  5.074e-02  linmin:  6.222e-05  t[s]:   2998.20
	Linear fluid (dielectric constant: 78.4, screening length: 5.74355 Bohr) occupying 0.797689 of unit cell:	Completed after 0 iterations at t[s]:   3009.70
	Linear fluid (dielectric constant: 78.4, screening length: 5.74355 Bohr) occupying 0.797689 of unit cell:	Completed after 0 iterations at t[s]:   3019.75
	FillingsUpdate:  mu: -0.185420119  nElectrons: 552.000000
	SubspaceRotationAdjust: set factor to 0.425
ElecMinimize: Iter:  17  F: -2548.290329432002636  |grad|_K:  2.109e-07  alpha:  5.654e-02  linmin:  2.347e-08  t[s]:   3031.31
	Linear fluid (dielectric constant: 78.4, screening length: 5.74355 Bohr) occupying 0.797688 of unit cell:	Completed after 2 iterations at t[s]:   3042.90
	Linear fluid (dielectric constant: 78.4, screening length: 5.74355 Bohr) occupying 0.797689 of unit cell:	Completed after 0 iterations at t[s]:   3052.62
	FillingsUpdate:  mu: -0.185346771  nElectrons: 552.000000
	SubspaceRotationAdjust: set factor to 0.357
ElecMinimize: Iter:  18  F: -2548.290329570147151  |grad|_K:  1.830e-07  alpha:  2.183e-02  linmin:  7.603e-05  t[s]:   3064.67
	Linear fluid (dielectric constant: 78.4, screening length: 5.74355 Bohr) occupying 0.797689 of unit cell:	Completed after 0 iterations at t[s]:   3076.54
	Linear fluid (dielectric constant: 78.4, screening length: 5.74355 Bohr) occupying 0.797688 of unit cell:	Completed after 0 iterations at t[s]:   3086.54
	FillingsUpdate:  mu: -0.185345907  nElectrons: 552.000000
	SubspaceRotationAdjust: set factor to 0.397
ElecMinimize: Iter:  19  F: -2548.290329733432827  |grad|_K:  1.566e-07  alpha:  5.482e-02  linmin:  7.215e-08  t[s]:   3098.71
	Linear fluid (dielectric constant: 78.4, screening length: 5.74355 Bohr) occupying 0.797688 of unit cell:	Completed after 1 iterations at t[s]:   3110.48
	Linear fluid (dielectric constant: 78.4, screening length: 5.74355 Bohr) occupying 0.797688 of unit cell:	Completed after 0 iterations at t[s]:   3120.51
	FillingsUpdate:  mu: -0.185421475  nElectrons: 552.000000
	SubspaceRotationAdjust: set factor to 0.477
ElecMinimize: Iter:  20  F: -2548.290329764880880  |grad|_K:  9.551e-08  alpha:  2.746e-02  linmin: -1.290e-05  t[s]:   3132.10
	Linear fluid (dielectric constant: 78.4, screening length: 5.74355 Bohr) occupying 0.797688 of unit cell:	Completed after 0 iterations at t[s]:   3144.33
ElecMinimize: 	Predicted alpha/alphaT>3.000000, increasing alphaT to 8.239413e-02.
	Linear fluid (dielectric constant: 78.4, screening length: 5.74355 Bohr) occupying 0.797688 of unit cell:	Completed after 0 iterations at t[s]:   3154.34
	Linear fluid (dielectric constant: 78.4, screening length: 5.74355 Bohr) occupying 0.797688 of unit cell:	Completed after 0 iterations at t[s]:   3164.50
	FillingsUpdate:  mu: -0.185427078  nElectrons: 552.000000
	SubspaceRotationAdjust: set factor to 0.621
ElecMinimize: Iter:  21  F: -2548.290329890287921  |grad|_K:  8.129e-08  alpha:  7.151e-02  linmin: -4.236e-05  t[s]:   3176.72
	Linear fluid (dielectric constant: 78.4, screening length: 5.74355 Bohr) occupying 0.797688 of unit cell:	Completed after 1 iterations at t[s]:   3188.69
	Linear fluid (dielectric constant: 78.4, screening length: 5.74355 Bohr) occupying 0.797688 of unit cell:	Completed after 0 iterations at t[s]:   3199.03
ElecMinimize: 	Step increased F by 4.229423e-08, reducing alpha to 2.297854e-03.
	Linear fluid (dielectric constant: 78.4, screening length: 5.74355 Bohr) occupying 0.797688 of unit cell:	Completed after 0 iterations at t[s]:   3220.47
ElecMinimize: 	Step increased F by 2.194201e-08, reducing alpha to 2.297854e-04.
	Linear fluid (dielectric constant: 78.4, screening length: 5.74355 Bohr) occupying 0.797688 of unit cell:	Completed after 0 iterations at t[s]:   3241.23
ElecMinimize: 	Step increased F by 2.040997e-08, reducing alpha to 2.297854e-05.
ElecMinimize: 	Step failed to reduce F after 3 attempts. Quitting step.
ElecMinimize: 	Undoing step.
	Linear fluid (dielectric constant: 78.4, screening length: 5.74355 Bohr) occupying 0.797688 of unit cell:	Completed after 0 iterations at t[s]:   3261.96
ElecMinimize: 	Step failed: resetting search direction.
	FillingsUpdate:  mu: -0.185468096  nElectrons: 552.000000
	SubspaceRotationAdjust: set factor to 0.541
ElecMinimize: Iter:  22  F: -2548.290329869899779  |grad|_K:  1.262e-07  alpha:  2.298e-05
	Linear fluid (dielectric constant: 78.4, screening length: 5.74355 Bohr) occupying 0.797688 of unit cell:	Completed after 2 iterations at t[s]:   3285.87
	Linear fluid (dielectric constant: 78.4, screening length: 5.74355 Bohr) occupying 0.797688 of unit cell:	Completed after 0 iterations at t[s]:   3296.04
	FillingsUpdate:  mu: -0.185434107  nElectrons: 552.000000
	SubspaceRotationAdjust: set factor to 0.344
ElecMinimize: Iter:  23  F: -2548.290329918086627  |grad|_K:  9.290e-08  alpha:  3.582e-02  linmin:  1.177e-04  t[s]:   3308.17
	Linear fluid (dielectric constant: 78.4, screening length: 5.74355 Bohr) occupying 0.797688 of unit cell:	Completed after 0 iterations at t[s]:   3320.49
ElecMinimize: 	Predicted alpha/alphaT>3.000000, increasing alphaT to 1.074660e-01.
	Linear fluid (dielectric constant: 78.4, screening length: 5.74355 Bohr) occupying 0.797688 of unit cell:	Completed after 0 iterations at t[s]:   3330.33
	Linear fluid (dielectric constant: 78.4, screening length: 5.74355 Bohr) occupying 0.797688 of unit cell:	Completed after 1 iterations at t[s]:   3340.99
	FillingsUpdate:  mu: -0.185406531  nElectrons: 552.000000
	SubspaceRotationAdjust: set factor to 0.391
ElecMinimize: Iter:  24  F: -2548.290329968552214  |grad|_K:  8.987e-08  alpha:  1.659e-01  linmin:  7.522e-05  t[s]:   3353.17
	Linear fluid (dielectric constant: 78.4, screening length: 5.74355 Bohr) occupying 0.797688 of unit cell:	Completed after 2 iterations at t[s]:   3365.14
	Linear fluid (dielectric constant: 78.4, screening length: 5.74355 Bohr) occupying 0.797688 of unit cell:	Completed after 0 iterations at t[s]:   3375.11
	FillingsUpdate:  mu: -0.185380329  nElectrons: 552.000000
	SubspaceRotationAdjust: set factor to 0.375
ElecMinimize: Iter:  25  F: -2548.290329989418296  |grad|_K:  1.518e-07  alpha:  5.348e-02  linmin:  3.955e-05  t[s]:   3386.90
	Linear fluid (dielectric constant: 78.4, screening length: 5.74355 Bohr) occupying 0.797688 of unit cell:	Completed after 0 iterations at t[s]:   3398.13
	Linear fluid (dielectric constant: 78.4, screening length: 5.74355 Bohr) occupying 0.797688 of unit cell:	Completed after 0 iterations at t[s]:   3408.38
	FillingsUpdate:  mu: -0.185379609  nElectrons: 552.000000
	SubspaceRotationAdjust: set factor to 0.362
ElecMinimize: Iter:  26  F: -2548.290330107779937  |grad|_K:  1.401e-07  alpha:  4.148e-02  linmin:  1.099e-08  t[s]:   3420.51
	Linear fluid (dielectric constant: 78.4, screening length: 5.74355 Bohr) occupying 0.797688 of unit cell:	Completed after 2 iterations at t[s]:   3432.06
	Linear fluid (dielectric constant: 78.4, screening length: 5.74355 Bohr) occupying 0.797688 of unit cell:	Completed after 0 iterations at t[s]:   3442.23
ElecMinimize: 	Step increased F by 1.077842e-08, reducing alpha to 1.495109e-03.
	Linear fluid (dielectric constant: 78.4, screening length: 5.74355 Bohr) occupying 0.797688 of unit cell:	Completed after 0 iterations at t[s]:   3462.41
	FillingsUpdate:  mu: -0.185440599  nElectrons: 552.000000
	SubspaceRotationAdjust: set factor to 0.486
ElecMinimize: Iter:  27  F: -2548.290330128126243  |grad|_K:  6.806e-08  alpha:  1.495e-03  linmin:  3.058e-05  t[s]:   3474.22
	Linear fluid (dielectric constant: 78.4, screening length: 5.74355 Bohr) occupying 0.797688 of unit cell:	Completed after 0 iterations at t[s]:   3485.60
ElecMinimize: 	Wrong curvature in test step, increasing alphaT to 4.485326e-03.
	Linear fluid (dielectric constant: 78.4, screening length: 5.74355 Bohr) occupying 0.797688 of unit cell:	Completed after 0 iterations at t[s]:   3491.69
	FillingsUpdate:  mu: -0.185440591  nElectrons: 552.000000
	SubspaceRotationAdjust: set factor to 0.518
ElecMinimize: Iter:  28  F: -2548.290330130265829  |grad|_K:  6.827e-08  alpha: -8.105e-02  linmin: -7.837e-05  t[s]:   3503.80
	Linear fluid (dielectric constant: 78.4, screening length: 5.74355 Bohr) occupying 0.797689 of unit cell:	Completed after 3 iterations at t[s]:   3515.62
	Linear fluid (dielectric constant: 78.4, screening length: 5.74355 Bohr) occupying 0.797688 of unit cell:	Completed after 2 iterations at t[s]:   3525.91
	FillingsUpdate:  mu: -0.185403182  nElectrons: 552.000000
	SubspaceRotationAdjust: set factor to 0.611
ElecMinimize: Iter:  29  F: -2548.290330231341159  |grad|_K:  4.788e-08  alpha:  6.254e-02  linmin: -5.274e-06  t[s]:   3537.99
	Linear fluid (dielectric constant: 78.4, screening length: 5.74355 Bohr) occupying 0.797688 of unit cell:	Completed after 0 iterations at t[s]:   3549.45
	Linear fluid (dielectric constant: 78.4, screening length: 5.74355 Bohr) occupying 0.797688 of unit cell:	Completed after 1 iterations at t[s]:   3559.50
ElecMinimize: 	Step increased F by 7.945482e-08, reducing alpha to 1.416417e-02.
	Linear fluid (dielectric constant: 78.4, screening length: 5.74355 Bohr) occupying 0.797688 of unit cell:	Completed after 0 iterations at t[s]:   3579.30
ElecMinimize: 	Step increased F by 7.964900e-09, reducing alpha to 1.416417e-03.
	Linear fluid (dielectric constant: 78.4, screening length: 5.74355 Bohr) occupying 0.797688 of unit cell:	Completed after 0 iterations at t[s]:   3599.38
ElecMinimize: 	Step increased F by 6.693426e-09, reducing alpha to 1.416417e-04.
ElecMinimize: 	Step failed to reduce F after 3 attempts. Quitting step.
ElecMinimize: 	Undoing step.
	Linear fluid (dielectric constant: 78.4, screening length: 5.74355 Bohr) occupying 0.797688 of unit cell:	Completed after 0 iterations at t[s]:   3619.26
ElecMinimize: 	Step failed: resetting search direction.
	FillingsUpdate:  mu: -0.185413977  nElectrons: 552.000000
	SubspaceRotationAdjust: set factor to 0.468
ElecMinimize: Iter:  30  F: -2548.290330224661375  |grad|_K:  3.740e-08  alpha:  1.416e-04
	Linear fluid (dielectric constant: 78.4, screening length: 5.74355 Bohr) occupying 0.797688 of unit cell:	Completed after 0 iterations at t[s]:   3642.34
	Linear fluid (dielectric constant: 78.4, screening length: 5.74355 Bohr) occupying 0.797688 of unit cell:	Completed after 0 iterations at t[s]:   3652.44
	FillingsUpdate:  mu: -0.185413722  nElectrons: 552.000000
	SubspaceRotationAdjust: set factor to 0.638
ElecMinimize: Iter:  31  F: -2548.290330269385322  |grad|_K:  3.973e-08  alpha:  1.633e-01  linmin: -6.758e-08  t[s]:   3663.95
	Linear fluid (dielectric constant: 78.4, screening length: 5.74355 Bohr) occupying 0.797688 of unit cell:	Completed after 2 iterations at t[s]:   3675.86
	Linear fluid (dielectric constant: 78.4, screening length: 5.74355 Bohr) occupying 0.797688 of unit cell:	Completed after 0 iterations at t[s]:   3686.11
ElecMinimize: 	Step increased F by 6.281334e-08, reducing alpha to 1.126414e-03.
	Linear fluid (dielectric constant: 78.4, screening length: 5.74355 Bohr) occupying 0.797688 of unit cell:	Completed after 0 iterations at t[s]:   3706.17
ElecMinimize: 	Step increased F by 2.569823e-08, reducing alpha to 1.126414e-04.
	Linear fluid (dielectric constant: 78.4, screening length: 5.74355 Bohr) occupying 0.797688 of unit cell:	Completed after 0 iterations at t[s]:   3725.99
ElecMinimize: 	Step increased F by 2.202432e-08, reducing alpha to 1.126414e-05.
ElecMinimize: 	Step failed to reduce F after 3 attempts. Quitting step.
ElecMinimize: 	Undoing step.
	Linear fluid (dielectric constant: 78.4, screening length: 5.74355 Bohr) occupying 0.797688 of unit cell:	Completed after 0 iterations at t[s]:   3746.65
ElecMinimize: 	Step failed: resetting search direction.
	FillingsUpdate:  mu: -0.185437338  nElectrons: 552.000000
	SubspaceRotationAdjust: set factor to 0.426
ElecMinimize: Iter:  32  F: -2548.290330247388738  |grad|_K:  2.487e-07  alpha:  1.126e-05
	Linear fluid (dielectric constant: 78.4, screening length: 5.74355 Bohr) occupying 0.797688 of unit cell:	Completed after 3 iterations at t[s]:   3770.08
	Linear fluid (dielectric constant: 78.4, screening length: 5.74355 Bohr) occupying 0.797688 of unit cell:	Completed after 3 iterations at t[s]:   3780.84
ElecMinimize: 	Step increased F by 3.459672e-08, reducing alpha to 3.308212e-03.
	Linear fluid (dielectric constant: 78.4, screening length: 5.74355 Bohr) occupying 0.797688 of unit cell:	Completed after 2 iterations at t[s]:   3801.32
ElecMinimize: 	Step increased F by 1.221897e-07, reducing alpha to 3.308212e-04.
	Linear fluid (dielectric constant: 78.4, screening length: 5.74355 Bohr) occupying 0.797688 of unit cell:	Completed after 0 iterations at t[s]:   3821.84
ElecMinimize: 	Step increased F by 1.453218e-07, reducing alpha to 3.308212e-05.
ElecMinimize: 	Step failed to reduce F after 3 attempts. Quitting step.
ElecMinimize: 	Undoing step.
	Linear fluid (dielectric constant: 78.4, screening length: 5.74355 Bohr) occupying 0.797688 of unit cell:	Completed after 0 iterations at t[s]:   3841.70
ElecMinimize: 	Step failed along negative gradient direction.
ElecMinimize: Probably at roundoff error limit. (Stopping)
Setting wave functions to eigenvectors of Hamiltonian
Single-point solvation energy estimate, DeltaF = -0.026585716173031

# Ionic positions in lattice coordinates:
ion Cu   0.000000453954545  -0.000000456090909   0.500000449545455 0
ion Cu   0.250000453954545   0.249999543909091   0.500000449545455 0
ion Cu   0.500000453954545  -0.000000456090909   0.500000449545455 0
ion Cu   0.750000453954545   0.249999543909091   0.500000449545455 0
ion Cu   0.000000453954545   0.499999543909091   0.500000449545455 0
ion Cu   0.250000453954545   0.749999543909091   0.500000449545455 0
ion Cu   0.500000453954545   0.499999543909091   0.500000449545455 0
ion Cu   0.750000453954545   0.749999543909091   0.500000449545455 0
ion H   0.313064968859737   0.020930875486564   0.435802259769650 0
ion H   0.063074969609738   0.229073201331621   0.564188645821262 0
ion H   0.436925938299353   0.270925886486561   0.435812253269647 0
ion H   0.186935939049353   0.479068212331619   0.564198639321259 0
ion H   0.813064968859737   0.020930875486564   0.435802259769650 0
ion H   0.563074969609738   0.229073201331621   0.564188645821262 0
ion H   0.936925938299353   0.270925886486561   0.435812253269647 0
ion H   0.686935939049353   0.479068212331619   0.564198639321259 0
ion H   0.313064968859737   0.520930875486564   0.435802259769650 0
ion H   0.063074969609738   0.729073201331621   0.564188645821262 0
ion H   0.436925938299353   0.770925886486561   0.435812253269647 0
ion H   0.186935939049353   0.979068212331619   0.564198639321259 0
ion H   0.813064968859737   0.520930875486564   0.435802259769650 0
ion H   0.563074969609738   0.729073201331621   0.564188645821262 0
ion H   0.936925938299353   0.770925886486561   0.435812253269647 0
ion H   0.686935939049353   0.979068212331619   0.564198639321259 0
ion Se   0.321991806056570   0.407656395087453   0.559885768020784 0
ion Se   0.071986797806571   0.342342708480726   0.440115131070125 0
ion Se   0.428014110102520   0.157656379337456   0.559885768020784 0
ion Se   0.178009101852520   0.092342692730730   0.440115131070125 0
ion Se   0.821991806056570   0.407656395087453   0.559885768020784 0
ion Se   0.571986797806571   0.342342708480726   0.440115131070125 0
ion Se   0.928014110102520   0.157656379337456   0.559885768020784 0
ion Se   0.678009101852521   0.092342692730730   0.440115131070125 0
ion Se   0.321991806056570   0.907656395087453   0.559885768020784 0
ion Se   0.071986797806571   0.842342708480726   0.440115131070125 0
ion Se   0.428014110102520   0.657656379337456   0.559885768020784 0
ion Se   0.178009101852520   0.592342692730730   0.440115131070125 0
ion Se   0.821991806056570   0.907656395087453   0.559885768020784 0
ion Se   0.571986797806571   0.842342708480726   0.440115131070125 0
ion Se   0.928014110102520   0.657656379337456   0.559885768020784 0
ion Se   0.678009101852521   0.592342692730730   0.440115131070125 0
ion O   0.114671096717173   0.260882539177194   0.484627676936900 0
ion O   0.385329811191918   0.239116548640989   0.515373222154009 0
ion O   0.364661111967172   0.489116558890991   0.515378231654009 0
ion O   0.232049504443147   0.139194704586206   0.510732784341063 0
ion O   0.135339795941919   0.010882528927192   0.484622667436900 0
ion O   0.482049507693147   0.110814349731979   0.489263105249845 0
ion O   0.267951403465943   0.360804383231977   0.489268114749846 0
ion O   0.017951400215944   0.389184738086204   0.510737793841064 0
ion O   0.276590160347577   0.048236262366989   0.396492629875498 0
ion O   0.026600170347573   0.201772838951192   0.603503272715412 0
ion O   0.223410747561514   0.451762825451193   0.603508269215411 0
ion O   0.473400737561517   0.298226248866990   0.396497626375497 0
ion O   0.614671096717173   0.260882539177194   0.484627676936900 0
ion O   0.885329811191918   0.239116548640989   0.515373222154009 0
ion O   0.864661111967172   0.489116558890991   0.515378231654009 0
ion O   0.732049504443147   0.139194704586206   0.510732784341063 0
ion O   0.635339795941919   0.010882528927192   0.484622667436900 0
ion O   0.982049507693147   0.110814349731979   0.489263105249845 0
ion O   0.767951403465943   0.360804383231977   0.489268114749846 0
ion O   0.517951400215944   0.389184738086204   0.510737793841064 0
ion O   0.776590160347576   0.048236262366989   0.396492629875498 0
ion O   0.526600170347573   0.201772838951192   0.603503272715412 0
ion O   0.723410747561514   0.451762825451193   0.603508269215411 0
ion O   0.973400737561517   0.298226248866990   0.396497626375497 0
ion O   0.114671096717173   0.760882539177194   0.484627676936900 0
ion O   0.385329811191918   0.739116548640989   0.515373222154009 0
ion O   0.364661111967172   0.989116558890991   0.515378231654009 0
ion O   0.232049504443147   0.639194704586206   0.510732784341063 0
ion O   0.135339795941919   0.510882528927192   0.484622667436900 0
ion O   0.482049507693147   0.610814349731979   0.489263105249845 0
ion O   0.267951403465943   0.860804383231977   0.489268114749846 0
ion O   0.017951400215944   0.889184738086204   0.510737793841064 0
ion O   0.276590160347577   0.548236262366989   0.396492629875498 0
ion O   0.026600170347573   0.701772838951192   0.603503272715412 0
ion O   0.223410747561514   0.951762825451193   0.603508269215411 0
ion O   0.473400737561517   0.798226248866990   0.396497626375497 0
ion O   0.614671096717173   0.760882539177194   0.484627676936900 0
ion O   0.885329811191918   0.739116548640989   0.515373222154009 0
ion O   0.864661111967172   0.989116558890991   0.515378231654009 0
ion O   0.732049504443147   0.639194704586206   0.510732784341063 0
ion O   0.635339795941919   0.510882528927192   0.484622667436900 0
ion O   0.982049507693147   0.610814349731979   0.489263105249845 0
ion O   0.767951403465943   0.860804383231977   0.489268114749846 0
ion O   0.517951400215944   0.889184738086204   0.510737793841064 0
ion O   0.776590160347576   0.548236262366989   0.396492629875498 0
ion O   0.526600170347573   0.701772838951192   0.603503272715412 0
ion O   0.723410747561514   0.951762825451193   0.603508269215411 0
ion O   0.973400737561517   0.798226248866990   0.396497626375497 0


# Forces in Lattice coordinates:
force Cu   0.000000000000000  -0.000000000000000   0.000000000000000 0
force Cu  -0.000000000000000   0.000000000000000   0.000000000000000 0
force Cu  -0.000000000000000   0.000000000000000  -0.000000000000000 0
force Cu   0.000000000000000  -0.000000000000000   0.000000000000000 0
force Cu  -0.000000000000000  -0.000000000000000  -0.000000000000000 0
force Cu   0.000000000000000  -0.000000000000000  -0.000000000000000 0
force Cu  -0.000000000000000  -0.000000000000000  -0.000000000000000 0
force Cu   0.000000000000000   0.000000000000000  -0.000000000000000 0
force H   0.044255938910825  -0.054721113470059   0.128972756887301 0
force H   0.044048807967356   0.054464594803827  -0.128709791875749 0
force H  -0.044048807967357  -0.054464594803823   0.128709791875748 0
force H  -0.044255938910827   0.054721113470059  -0.128972756887316 0
force H   0.044255938910827  -0.054721113470062   0.128972756887308 0
force H   0.044048807967356   0.054464594803823  -0.128709791875741 0
force H  -0.044048807967355  -0.054464594803827   0.128709791875755 0
force H  -0.044255938910829   0.054721113470062  -0.128972756887308 0
force H   0.044255938910825  -0.054721113470059   0.128972756887301 0
force H   0.044048807967355   0.054464594803831  -0.128709791875748 0
force H  -0.044048807967356  -0.054464594803820   0.128709791875748 0
force H  -0.044255938910827   0.054721113470059  -0.128972756887308 0
force H   0.044255938910827  -0.054721113470062   0.128972756887294 0
force H   0.044048807967359   0.054464594803827  -0.128709791875749 0
force H  -0.044048807967356  -0.054464594803823   0.128709791875755 0
force H  -0.044255938910825   0.054721113470063  -0.128972756887316 0
force Se   0.093130074183305  -0.038138341320726  -0.091093450880756 0
force Se   0.092405536515985   0.035591124391962   0.092418570196406 0
force Se  -0.092405536515992  -0.035591124391974  -0.092418570196404 0
force Se  -0.093130074183313   0.038138341320726   0.091093450880756 0
force Se   0.093130074183306  -0.038138341320719  -0.091093450880813 0
force Se   0.092405536515992   0.035591124391962   0.092418570196406 0
force Se  -0.092405536515985  -0.035591124391968  -0.092418570196349 0
force Se  -0.093130074183314   0.038138341320726   0.091093450880756 0
force Se   0.093130074183306  -0.038138341320719  -0.091093450880813 0
force Se   0.092405536515977   0.035591124391976   0.092418570196349 0
force Se  -0.092405536515992  -0.035591124391962  -0.092418570196349 0
force Se  -0.093130074183307   0.038138341320726   0.091093450880756 0
force Se   0.093130074183306  -0.038138341320719  -0.091093450880756 0
force Se   0.092405536515984   0.035591124391969   0.092418570196349 0
force Se  -0.092405536515984  -0.035591124391962  -0.092418570196291 0
force Se  -0.093130074183306   0.038138341320712   0.091093450880756 0
force O  -0.050928456716619   0.069301499520687   0.004782323765049 0
force O   0.050928456716605  -0.069301499520677  -0.004782323765063 0
force O  -0.036294109772075  -0.069196148536840  -0.006510786246212 0
force O  -0.003168086587102  -0.074211404746031  -0.064941087809274 0
force O   0.036294109772075   0.069196148536843   0.006510786246254 0
force O  -0.002438247366320   0.058235495505475   0.070520084978348 0
force O   0.003168086587100   0.074211404746031   0.064941087809242 0
force O   0.002438247366318  -0.058235495505475  -0.070520084978291 0
force O  -0.001222105953272   0.018088444413486  -0.116057724354185 0
force O  -0.001464509696573  -0.021759294772985   0.116517997623689 0
force O   0.001222105953272  -0.018088444413485   0.116057724354068 0
force O   0.001464509696566   0.021759294772985  -0.116517997623919 0
force O  -0.050928456716605   0.069301499520680   0.004782323765049 0
force O   0.050928456716605  -0.069301499520677  -0.004782323765062 0
force O  -0.036294109772047  -0.069196148536840  -0.006510786246226 0
force O  -0.003168086587101  -0.074211404746060  -0.064941087809299 0
force O   0.036294109772075   0.069196148536843   0.006510786246238 0
force O  -0.002438247366319   0.058235495505475   0.070520084978316 0
force O   0.003168086587101   0.074211404746032   0.064941087809270 0
force O   0.002438247366318  -0.058235495505475  -0.070520084978320 0
force O  -0.001222105953272   0.018088444413485  -0.116057724354071 0
force O  -0.001464509696577  -0.021759294772989   0.116517997623802 0
force O   0.001222105953272  -0.018088444413485   0.116057724354178 0
force O   0.001464509696573   0.021759294772985  -0.116517997623916 0
force O  -0.050928456716605   0.069301499520677   0.004782323765063 0
force O   0.050928456716619  -0.069301499520673  -0.004782323765049 0
force O  -0.036294109772047  -0.069196148536847  -0.006510786246225 0
force O  -0.003168086587101  -0.074211404746003  -0.064941087809274 0
force O   0.036294109772061   0.069196148536840   0.006510786246239 0
force O  -0.002438247366320   0.058235495505447   0.070520084978316 0
force O   0.003168086587101   0.074211404746003   0.064941087809245 0
force O   0.002438247366320  -0.058235495505475  -0.070520084978323 0
force O  -0.001222105953276   0.018088444413482  -0.116057724354178 0
force O  -0.001464509696573  -0.021759294772989   0.116517997623689 0
force O   0.001222105953272  -0.018088444413485   0.116057724354064 0
force O   0.001464509696573   0.021759294772985  -0.116517997623692 0
force O  -0.050928456716605   0.069301499520677   0.004782323765049 0
force O   0.050928456716619  -0.069301499520677  -0.004782323765049 0
force O  -0.036294109772061  -0.069196148536847  -0.006510786246212 0
force O  -0.003168086587101  -0.074211404746032  -0.064941087809302 0
force O   0.036294109772061   0.069196148536840   0.006510786246268 0
force O  -0.002438247366320   0.058235495505475   0.070520084978259 0
force O   0.003168086587101   0.074211404746060   0.064941087809274 0
force O   0.002438247366320  -0.058235495505475  -0.070520084978320 0
force O  -0.001222105953275   0.018088444413485  -0.116057724354185 0
force O  -0.001464509696576  -0.021759294772985   0.116517997623802 0
force O   0.001222105953275  -0.018088444413486   0.116057724354064 0
force O   0.001464509696573   0.021759294772985  -0.116517997623802 0

# Energy components:
   A_diel =       -0.0357651044889096
   Eewald =     9440.4750167023430549
       EH =    11681.6460320067035354
     Eloc =   -24315.7535160020888725
      Enl =      443.4429129226267605
      Exc =     -572.5294991144992309
 Exc_core =      199.1511298205085154
       KE =      575.3683655951064111
-------------------------------------
     Etot =    -2548.2353231737865826
       TS =        0.0550069280307202
-------------------------------------
        F =    -2548.2903301018172897

IonicMinimize: Iter:   0  F: -2548.290330101817290  |grad|_K:  0.000e+00  t[s]:   3865.93
IonicMinimize: Converged (|grad|_K<1.000000e-04).

#--- Lowdin population analysis ---
# oxidation-state Cu +0.334 +0.330 +0.334 +0.330 +0.334 +0.330 +0.334 +0.330
# oxidation-state H +0.378 +0.378 +0.378 +0.378 +0.378 +0.378 +0.378 +0.378 +0.378 +0.378 +0.378 +0.378 +0.378 +0.378 +0.378 +0.378
# oxidation-state Se +1.634 +1.634 +1.634 +1.634 +1.634 +1.634 +1.634 +1.634 +1.634 +1.634 +1.634 +1.634 +1.634 +1.634 +1.634 +1.634
# oxidation-state O -0.597 -0.597 -0.597 -0.604 -0.597 -0.604 -0.604 -0.604 -0.673 -0.673 -0.673 -0.673 -0.597 -0.597 -0.597 -0.604 -0.597 -0.604 -0.604 -0.604 -0.673 -0.673 -0.673 -0.673 -0.597 -0.597 -0.597 -0.604 -0.597 -0.604 -0.604 -0.604 -0.673 -0.673 -0.673 -0.673 -0.597 -0.597 -0.597 -0.604 -0.597 -0.604 -0.604 -0.604 -0.673 -0.673 -0.673 -0.673


Dumping 'NbTe2.fillings' ... done
Dumping 'NbTe2.wfns' ... done
Dumping 'NbTe2.fluidState' ... done
Dumping 'NbTe2.eigenvals' ... done
End date and time: Mon Jul 13 17:31:29 2020  (Duration: 0-1:04:35.76)
Done!
