
*************** JDFTx 1.5.0  ***************

Start date and time: Thu Sep 24 20:48:42 2020
Executable jdftx_gpu with command-line: -i Charged.in -o Charged.out
Running on hosts (process indices):  amax (0-6)
Divided in process groups (process indices):  0 (0)  1 (1)  2 (2)  3 (3)  4 (4)  5 (5)  6 (6)
gpuInit: Found compatible cuda device 0 'Tesla K80'
gpuInit: Found compatible cuda device 1 'Tesla K80'
gpuInit: Found compatible cuda device 2 'Tesla K80'
gpuInit: Found compatible cuda device 3 'Tesla K80'
gpuInit: Found compatible cuda device 4 'Tesla K80'
gpuInit: Found compatible cuda device 5 'Tesla K80'
gpuInit: Found compatible cuda device 6 'Tesla K80'
gpuInit: Selected device 0
Resource initialization completed at t[s]:      9.13
Run totals: 7 processes, 24 threads, 7 GPUs


Input parsed successfully to the following command list (including defaults):

basis kpoint-dependent
cache-projectors no
coords-type Lattice
core-overlap-check none
coulomb-interaction Slab 001
coulomb-truncation-embed 0 0 0.5
davidson-band-ratio 1.1
dump End State
dump-name NbTe2.$VAR
elec-cutoff 20 100
elec-eigen-algo Davidson
elec-ex-corr gga-PBE
elec-initial-magnetization 5.000000 no
elec-smearing Gauss 0.0073499
electronic-minimize  \
	dirUpdateScheme      FletcherReeves \
	linminMethod         DirUpdateRecommended \
	nIterations          500 \
	history              15 \
	knormThreshold       0 \
	energyDiffThreshold  1e-08 \
	nEnergyDiff          2 \
	alphaTstart          1 \
	alphaTmin            1e-10 \
	updateTestStepSize   yes \
	alphaTreduceFactor   0.1 \
	alphaTincreaseFactor 3 \
	nAlphaAdjustMax      3 \
	wolfeEnergy          0.0001 \
	wolfeGradient        0.9 \
	fdTest               no
exchange-regularization WignerSeitzTruncated
fluid LinearPCM 298.000000 1.013250
fluid-anion F- 1 MeanFieldLJ \
	epsBulk 1 \
	pMol 0 \
	epsInf 1 \
	Pvap 0 \
	sigmaBulk 0 \
	Rvdw 2.24877 \
	Res 0 \
	tauNuc 343133
fluid-cation Na+ 1 MeanFieldLJ \
	epsBulk 1 \
	pMol 0 \
	epsInf 1 \
	Pvap 0 \
	sigmaBulk 0 \
	Rvdw 2.19208 \
	Res 0 \
	tauNuc 343133
fluid-ex-corr lda-TF lda-PZ
fluid-gummel-loop 10 1.000000e-05
fluid-minimize  \
	dirUpdateScheme      PolakRibiere \
	linminMethod         DirUpdateRecommended \
	nIterations          400 \
	history              15 \
	knormThreshold       1e-11 \
	energyDiffThreshold  0 \
	nEnergyDiff          2 \
	alphaTstart          1 \
	alphaTmin            1e-10 \
	updateTestStepSize   yes \
	alphaTreduceFactor   0.1 \
	alphaTincreaseFactor 3 \
	nAlphaAdjustMax      6 \
	wolfeEnergy          0.0001 \
	wolfeGradient        0.9 \
	fdTest               no
fluid-solvent H2O 55.338 ScalarEOS \
	epsBulk 78.4 \
	pMol 0.92466 \
	epsInf 1.77 \
	Pvap 1.06736e-10 \
	sigmaBulk 4.62e-05 \
	Rvdw 2.61727 \
	Res 1.42 \
	tauNuc 343133 \
	poleEl 15 7 1
forces-output-coords Positions
initial-state NbTe2.$VAR
ion Ta   0.170974051260658   0.084251389004829   0.503868809278205 1
ion Ta   0.417702417876232   0.084410894804354   0.504424990836826 1
ion Ta   0.669781565253832   0.084591285932098   0.504616596336285 1
ion Ta   0.919119730154337   0.084601741284441   0.504322604928375 1
ion Ta   0.169371354521626   0.334377147114415   0.504260385300409 1
ion Ta   0.413309373467128   0.322431562635549   0.504851394839760 1
ion Ta   0.669732326949177   0.334247253102274   0.504335406189584 1
ion Ta   0.919104675426623   0.333885377016085   0.504393906567171 1
ion Ta   0.170946797227776   0.586024938734530   0.504182488806453 1
ion Ta   0.413290839398403   0.590147477158318   0.504866210170595 1
ion Ta   0.681013510204976   0.590227782928228   0.504418575133716 1
ion Ta   0.919269761797606   0.586017316749594   0.504110600335559 1
ion Ta   0.169487485088374   0.834405203702310   0.504042999253747 1
ion Ta   0.417735657445868   0.832606620580865   0.504643974607803 1
ion Ta   0.669658801355065   0.834810598044449   0.504505191709285 1
ion Ta   0.919300751104922   0.832625540398999   0.503995245551591 1
ion S   0.003043430961382   0.000685067556792   0.589667007957006 1
ion S   0.002742598914106   0.000826140354894   0.418320992181435 1
ion S   0.251957979648303   1.000005885446902   0.590921027997749 1
ion S   0.252585068659026   0.000295597706323   0.417228345655350 1
ion S   0.502053305266760   0.000776536710704   0.590208026585501 1
ion S   0.502254013416215   0.000704868063448   0.418909514927314 1
ion S   0.752920587145869   0.001236324313584   0.590943641584176 1
ion S   0.752633924828354   0.001268586488148   0.418028512219275 1
ion S   0.002719054536757   0.251014257075720   0.590718686306871 1
ion S   0.002524490503349   0.250985406940797   0.417914053686792 1
ion S   0.250019966399845   0.249371168416249   0.591371092118119 1
ion S   0.251233588683035   0.250512405874878   0.416994145230567 1
ion S   0.503997336877775   0.249954454926248   0.591700010269199 1
ion S   0.503693763933487   0.250406065964163   0.417382494447733 1
ion S   0.752844326393547   0.251095436760594   0.590917736760029 1
ion S   0.752731284001948   0.250730614706591   0.417973331318729 1
ion S   0.002904483461562   0.501633894946626   0.589858406147221 1
ion S   0.002840204262466   0.501349256886408   0.418519718730870 1
ion S   0.250163582346307   0.499934875401600   0.591513488883761 1
ion S   0.251137349880869   0.500169914197282   0.417120016459223 1
ion S   0.504261824736196   0.501706848275360   0.580403822639576 1
ion S   0.502358109652849   0.500845633905983   0.427153478329329 1
ion S   0.753924885977376   0.499974340481104   0.591531706238207 1
ion S   0.753207876703126   0.499886559253856   0.417058345337870 1
ion S   0.003654530661510   0.751556292117345   0.590807173161054 1
ion S   0.003526907385839   0.751384608461406   0.417192009814325 1
ion S   0.251940097452812   0.751404613563366   0.591099785119503 1
ion S   0.252631192868428   0.751499276819229   0.417435506005646 1
ion S   0.503876479654252   0.753069187411662   0.591922132160335 1
ion S   0.503676575775028   0.752659216782176   0.417534122844577 1
ion S   0.754069038113157   0.753344423765779   0.591558651468174 1
ion S   0.753092917879963   0.752731982261861   0.417069573490132 1
ion O   0.529753153256680   0.516698720090021   0.673011890918409 1
ion O   0.420916754199764   0.462911165038099   0.715828850839112 1
ion H   0.422540326029461   0.394968269843451   0.736932870321547 1
ion-species GBRV/$ID_pbe.uspp
ion-width Ecut
ionic-minimize  \
	dirUpdateScheme      L-BFGS \
	linminMethod         DirUpdateRecommended \
	nIterations          500 \
	history              15 \
	knormThreshold       0.0001 \
	energyDiffThreshold  1e-06 \
	nEnergyDiff          2 \
	alphaTstart          1 \
	alphaTmin            1e-10 \
	updateTestStepSize   yes \
	alphaTreduceFactor   0.1 \
	alphaTincreaseFactor 3 \
	nAlphaAdjustMax      3 \
	wolfeEnergy          0.0001 \
	wolfeGradient        0.9 \
	fdTest               no
kpoint   0.000000000000   0.000000000000   0.000000000000  1.00000000000000
kpoint-folding 3 3 1 
latt-move-scale 1 1 1
latt-scale 1 1 1 
lattice Triclinic 25.1736 25.1736 34.2617 90 90 120
lattice-minimize  \
	dirUpdateScheme      L-BFGS \
	linminMethod         DirUpdateRecommended \
	nIterations          0 \
	history              15 \
	knormThreshold       0 \
	energyDiffThreshold  1e-06 \
	nEnergyDiff          2 \
	alphaTstart          1 \
	alphaTmin            1e-10 \
	updateTestStepSize   yes \
	alphaTreduceFactor   0.1 \
	alphaTincreaseFactor 3 \
	nAlphaAdjustMax      3 \
	wolfeEnergy          0.0001 \
	wolfeGradient        0.9 \
	fdTest               no
lcao-params -1 1e-06 0.0073499
pcm-variant CANDLE
spintype z-spin
subspace-rotation-factor 1 yes
symmetries automatic
symmetry-threshold 0.0001
target-mu -0.171252 no




---------- Setting up symmetries ----------

Found 24 point-group symmetries of the bravais lattice
Found 1 space-group symmetries with basis
Applied RMS atom displacement 0 bohrs to make symmetries exact.

---------- Initializing the Grid ----------
R = 
[    25.1736   -12.5868          0  ]
[          0     21.801          0  ]
[          0          0    34.2617  ]
unit cell volume = 18803.1
G =
[   0.249594   0.144103         -0  ]
[          0   0.288207          0  ]
[          0         -0   0.183388  ]
Minimum fftbox size, Smin = [  116  116  156  ]
Chosen fftbox size, S = [  120  120  160  ]

---------- Initializing tighter grid for wavefunction operations ----------
R = 
[    25.1736   -12.5868          0  ]
[          0     21.801          0  ]
[          0          0    34.2617  ]
unit cell volume = 18803.1
G =
[   0.249594   0.144103         -0  ]
[          0   0.288207          0  ]
[          0         -0   0.183388  ]
Minimum fftbox size, Smin = [  104  104  140  ]
Chosen fftbox size, S = [  108  108  140  ]

---------- Exchange Correlation functional ----------
Initalized PBE GGA exchange.
Initalized PBE GGA correlation.

---------- Setting up pseudopotentials ----------
Width of ionic core gaussian charges (only for fluid interactions / plotting) set to 0.397384

Reading pseudopotential file '/home/guoxy/vasp/jdftx-1.5.0/build/pseudopotentials/GBRV/ta_pbe.uspp':
  Title: Ta.  Created by USPP 7.3.6 on 14-9-2013
  Reference state energy: -70.583193.  13 valence electrons in orbitals:
    |500>  occupation: 2  eigenvalue: -2.682396
    |510>  occupation: 6  eigenvalue: -1.447928
    |520>  occupation: 3  eigenvalue: -0.131987
    |600>  occupation: 2  eigenvalue: -0.199982
    |610>  occupation: 0  eigenvalue: -0.051129
  lMax: 3  lLocal: 3  QijEcut: 5
  7 projectors sampled on a log grid with 667 points:
    l: 0  eig: -2.682397  rCut: 1.4
    l: 0  eig: -0.199983  rCut: 1.4
    l: 1  eig: -1.447928  rCut: 1.5
    l: 1  eig: -0.051130  rCut: 1.5
    l: 2  eig: -0.131987  rCut: 1.7
    l: 2  eig: 0.150000  rCut: 1.7
    l: 3  eig: 0.250000  rCut: 2.3
  Partial core density with radius 1.2
  Transforming core density to a uniform radial grid of dG=0.02 with 1673 points.
  Transforming local potential to a uniform radial grid of dG=0.02 with 1673 points.
  Transforming nonlocal projectors to a uniform radial grid of dG=0.02 with 432 points.
  Transforming density augmentations to a uniform radial grid of dG=0.02 with 1673 points.
  Transforming atomic orbitals to a uniform radial grid of dG=0.02 with 432 points.
  Core radius for overlap checks: 2.30 bohrs.

Reading pseudopotential file '/home/guoxy/vasp/jdftx-1.5.0/build/pseudopotentials/GBRV/s_pbe.uspp':
  Title: S.  Created by USPP 7.3.6 on 1-4-15
  Reference state energy: -11.898476.  6 valence electrons in orbitals:
    |300>  occupation: 2  eigenvalue: -0.634167
    |310>  occupation: 4  eigenvalue: -0.257568
  lMax: 2  lLocal: 3  QijEcut: 6
  6 projectors sampled on a log grid with 635 points:
    l: 0  eig: -0.634161  rCut: 1.5
    l: 0  eig: 1.500000  rCut: 1.5
    l: 1  eig: -0.257567  rCut: 1.5
    l: 1  eig: 1.500000  rCut: 1.5
    l: 2  eig: -1.000000  rCut: 1.5
    l: 2  eig: 1.500000  rCut: 1.5
  Partial core density with radius 1.15
  Transforming core density to a uniform radial grid of dG=0.02 with 1673 points.
  Transforming local potential to a uniform radial grid of dG=0.02 with 1673 points.
  Transforming nonlocal projectors to a uniform radial grid of dG=0.02 with 432 points.
  Transforming density augmentations to a uniform radial grid of dG=0.02 with 1673 points.
  Transforming atomic orbitals to a uniform radial grid of dG=0.02 with 432 points.
  Core radius for overlap checks: 1.50 bohrs.

Reading pseudopotential file '/home/guoxy/vasp/jdftx-1.5.0/build/pseudopotentials/GBRV/o_pbe.uspp':
  Title: O.  Created by USPP 7.3.6 on 3-2-2014
  Reference state energy: -15.894388.  6 valence electrons in orbitals:
    |200>  occupation: 2  eigenvalue: -0.878823
    |210>  occupation: 4  eigenvalue: -0.332131
  lMax: 2  lLocal: 2  QijEcut: 6
  5 projectors sampled on a log grid with 511 points:
    l: 0  eig: -0.878823  rCut: 1.25
    l: 0  eig: 0.000000  rCut: 1.25
    l: 1  eig: -0.332132  rCut: 1.25
    l: 1  eig: 0.000000  rCut: 1.25
    l: 2  eig: 1.000000  rCut: 1.25
  Partial core density with radius 0.7
  Transforming core density to a uniform radial grid of dG=0.02 with 1673 points.
  Transforming local potential to a uniform radial grid of dG=0.02 with 1673 points.
  Transforming nonlocal projectors to a uniform radial grid of dG=0.02 with 432 points.
  Transforming density augmentations to a uniform radial grid of dG=0.02 with 1673 points.
  Transforming atomic orbitals to a uniform radial grid of dG=0.02 with 432 points.
  Core radius for overlap checks: 1.25 bohrs.

Reading pseudopotential file '/home/guoxy/vasp/jdftx-1.5.0/build/pseudopotentials/GBRV/h_pbe.uspp':
  Title: H.  Created by USPP 7.3.6 on 2-4-15
  Reference state energy: -0.458849.  1 valence electrons in orbitals:
    |100>  occupation: 1  eigenvalue: -0.238595
  lMax: 0  lLocal: 1  QijEcut: 6
  2 projectors sampled on a log grid with 395 points:
    l: 0  eig: -0.238595  rCut: 1.2
    l: 0  eig: 1.000000  rCut: 1.2
  Transforming local potential to a uniform radial grid of dG=0.02 with 1673 points.
  Transforming nonlocal projectors to a uniform radial grid of dG=0.02 with 432 points.
  Transforming density augmentations to a uniform radial grid of dG=0.02 with 1673 points.
  Transforming atomic orbitals to a uniform radial grid of dG=0.02 with 432 points.
  Core radius for overlap checks: 1.20 bohrs.

Initialized 4 species with 51 total atoms.

Folded 1 k-points by 3x3x1 to 9 k-points.

---------- Setting up k-points, bands, fillings ----------
Adding inversion symmetry to k-mesh for non-inversion-symmetric unit cell.
Reduced to 5 k-points under symmetry. 
Computing the number of bands and number of electrons
Calculating initial fillings.
nElectrons: 413.000000   nBands: 345   nStates: 10

----- Setting up reduced wavefunction bases (one per k-point) -----
average nbasis = 80341.667 , ideal nbasis = 80328.402

---------- Setting up coulomb interaction ----------
Fluid mode embedding: using embedded box, but periodic Coulomb kernel.
(Fluid response is responsible for (approximate) separation between periodic images.)
Setting up double-sized grid for truncated Coulomb potentials:
R = 
[    25.1736   -12.5868          0  ]
[          0     21.801          0  ]
[          0          0    68.5234  ]
unit cell volume = 37606.3
G =
[   0.249594   0.144103         -0  ]
[          0   0.288207          0  ]
[          0         -0  0.0916941  ]
Chosen fftbox size, S = [  120  120  320  ]
Integer grid location selected as the embedding center:
   Grid: [  0  0  80  ]
   Lattice: [  0  0  0.5  ]
   Cartesian: [  0  0  17.1308  ]
Constructing Wigner-Seitz cell: 8 faces (6 quadrilaterals, 2 hexagons)
Range-separation parameter for embedded mesh potentials due to point charges: 0.583787 bohrs.

Initializing van der Waals corrections
	NOTE: vdW corrections apply only for interactions with fluid.
	Ta:  C6:  815.23 Eh-a0^6  R0: 3.326 a0 (WARNING: beyond Grimme's data set)
	 S:  C6:   96.61 Eh-a0^6  R0: 3.180 a0
	 O:  C6:   12.14 Eh-a0^6  R0: 2.536 a0
	 H:  C6:    2.43 Eh-a0^6  R0: 1.892 a0

---------- Setting up ewald sum ----------
Optimum gaussian width for ewald sums = 6.940676 bohr.
Real space sum over 605 unit cells with max indices [  5  5  2  ]
Reciprocal space sum over 7425 terms with max indices [  7  7  16  ]

---------- Allocating electronic variables ----------
Initializing wave functions:  linear combination of atomic orbitals
Ta pseudo-atom occupations:   s ( 2 2 )  p ( 6 0 )  d ( 3 )
S pseudo-atom occupations:   s ( 2 )  p ( 4 )
O pseudo-atom occupations:   s ( 2 )  p ( 4 )
H pseudo-atom occupations:   s ( 1 )
	FillingsUpdate:  mu: -0.171251800  nElectrons: 413.000000  magneticMoment: [ Abs: 1.35862  Tot: +1.15460 ]
LCAOMinimize: Iter:   0  G: -1166.1004820218429359  |grad|_K:  2.852e-02  alpha:  1.000e+00
LCAOMinimize: 	Step increased G by 1.796874e+01, reducing alpha to 3.236128e-02.
	FillingsUpdate:  mu: -0.171251800  nElectrons: 413.000000  magneticMoment: [ Abs: 1.50094  Tot: +1.28695 ]
LCAOMinimize: Iter:   1  G: -1198.5045812670286978  |grad|_K:  2.366e-02  alpha:  3.236e-02  linmin: -3.259e-01  cgtest:  7.876e-01  t[s]:    216.07
	FillingsUpdate:  mu: -0.171251800  nElectrons: 413.000000  magneticMoment: [ Abs: 1.62571  Tot: +1.47780 ]
LCAOMinimize: Iter:   2  G: -1226.3031694124745172  |grad|_K:  8.191e-03  alpha:  9.504e-02  linmin: -6.237e-03  cgtest: -1.876e-01  t[s]:    271.52
	FillingsUpdate:  mu: -0.171251800  nElectrons: 413.000000  magneticMoment: [ Abs: 2.33416  Tot: +2.26212 ]
LCAOMinimize: Iter:   3  G: -1229.7907627530237278  |grad|_K:  1.788e-03  alpha:  8.760e-02  linmin: -1.061e-01  cgtest:  5.820e-01  t[s]:    326.75
LCAOMinimize: Encountered beta<0, resetting CG.
	FillingsUpdate:  mu: -0.171251800  nElectrons: 413.000000  magneticMoment: [ Abs: 2.29727  Tot: +2.22916 ]
LCAOMinimize: Iter:   4  G: -1229.9328330648409064  |grad|_K:  4.167e-04  alpha:  7.364e-02  linmin:  4.372e-02  cgtest: -1.344e-01  t[s]:    385.89
	FillingsUpdate:  mu: -0.171251800  nElectrons: 413.000000  magneticMoment: [ Abs: 2.06704  Tot: +1.99380 ]
LCAOMinimize: Iter:   5  G: -1229.9538176648409262  |grad|_K:  2.904e-04  alpha:  2.098e-01  linmin:  4.122e-02  cgtest: -4.536e-02  t[s]:    438.43
	FillingsUpdate:  mu: -0.171251800  nElectrons: 413.000000  magneticMoment: [ Abs: 1.83645  Tot: +1.75865 ]
LCAOMinimize: Iter:   6  G: -1229.9621042313065118  |grad|_K:  2.040e-04  alpha:  1.606e-01  linmin:  6.172e-02  cgtest: -1.429e-01  t[s]:    499.09
	FillingsUpdate:  mu: -0.171251800  nElectrons: 413.000000  magneticMoment: [ Abs: 1.67279  Tot: +1.59257 ]
LCAOMinimize: Iter:   7  G: -1229.9641110512056912  |grad|_K:  1.340e-04  alpha:  1.032e-01  linmin:  6.756e-02  cgtest:  4.021e-01  t[s]:    557.41
	FillingsUpdate:  mu: -0.171251800  nElectrons: 413.000000  magneticMoment: [ Abs: 1.58146  Tot: +1.50124 ]
LCAOMinimize: Iter:   8  G: -1229.9650739364790297  |grad|_K:  6.736e-05  alpha:  9.770e-02  linmin: -1.584e-01  cgtest:  6.527e-01  t[s]:    615.12
LCAOMinimize: Encountered beta<0, resetting CG.
	FillingsUpdate:  mu: -0.171251800  nElectrons: 413.000000  magneticMoment: [ Abs: 1.55116  Tot: +1.47129 ]
LCAOMinimize: Iter:   9  G: -1229.9651022745235878  |grad|_K:  5.299e-05  alpha:  4.709e-02  linmin: -2.721e-01  cgtest:  9.554e-01  t[s]:    668.60
LCAOMinimize: Encountered beta<0, resetting CG.
	FillingsUpdate:  mu: -0.171251800  nElectrons: 413.000000  magneticMoment: [ Abs: 1.53633  Tot: +1.45665 ]
LCAOMinimize: Iter:  10  G: -1229.9651055244914915  |grad|_K:  4.929e-05  alpha:  2.346e-02  linmin: -2.755e-01  cgtest:  9.984e-01  t[s]:    719.50
LCAOMinimize: Encountered beta<0, resetting CG.
	FillingsUpdate:  mu: -0.171251800  nElectrons: 413.000000  magneticMoment: [ Abs: 1.52913  Tot: +1.44954 ]
LCAOMinimize: Iter:  11  G: -1229.9651055714691665  |grad|_K:  4.773e-05  alpha:  1.151e-02  linmin: -2.762e-01  cgtest:  9.998e-01  t[s]:    771.01
LCAOMinimize: Encountered beta<0, resetting CG.
LCAOMinimize: 	Step increased G by 2.923975e-07, reducing alpha to 5.589525e-04.
LCAOMinimize: 	Step increased G by 1.620970e-08, reducing alpha to 5.589525e-05.
LCAOMinimize: 	Step increased G by 1.515900e-09, reducing alpha to 5.589525e-06.
LCAOMinimize: 	Step failed to reduce G after 3 attempts. Quitting step.
LCAOMinimize: 	Undoing step.
LCAOMinimize: 	Step failed along negative gradient direction.
LCAOMinimize: Probably at roundoff error limit. (Stopping)
----- createFluidSolver() ----- (Fluid-side solver setup)
   Initializing fluid molecule 'H2O'
     Initializing site 'O'
       Electron density: proportional to exp(-r/0.36935)*erfc((r-0.51523)/0.36823) with norm 6.826
       Charge density: gaussian nuclear width 0.478731 with net site charge 0.826
       Polarizability: cuspless exponential with width 0.32 and norm 3.73
       Hard sphere radius: 2.57003 bohrs
       Positions in reference frame:
         [ +0.000000 +0.000000 +0.000000 ]
     Initializing site 'H'
       Electron density: proportional to exp(-r/0.34641)*erfc((r-0)/0.390882) with norm 0.587
       Charge density: gaussian nuclear width 0.377945 with net site charge -0.413
       Polarizability: cuspless exponential with width 0.39 and norm 3.3
       Positions in reference frame:
         [ +0.000000 -1.441945 +1.122523 ]
         [ +0.000000 +1.441945 +1.122523 ]
     Net charge: 0   dipole magnitude: 0.927204
     Initializing spherical shell mfKernel with radius 2.61727 Bohr
     deltaS corrections:
       site 'O': -7.54299
       site 'H': -6.83917
   Initializing fluid molecule 'Na+'
     Initializing site 'Na'
       Electron density: proportional to exp(-r/0.19682)*erfc((r-0.71491)/0.41314) with norm 8.1383
       Charge density: gaussian nuclear width 0.365347 with net site charge -1
       Hard sphere radius: 1.86327 bohrs
       Positions in reference frame:
         [ +0.000000 +0.000000 +0.000000 ]
     Net charge: -1   dipole magnitude: 0
     Initializing gaussian mfKernel with width: 1.55004 Bohr
     deltaS corrections:
       site 'Na': -22.3555
   Initializing fluid molecule 'F-'
     Initializing site 'F'
       Electron density: proportional to exp(-r/0.38886)*erfc((r-0)/0.438782) with norm 8
       Charge density: gaussian nuclear width 0.374796 with net site charge 1
       Hard sphere radius: 2.39995 bohrs
       Positions in reference frame:
         [ +0.000000 +0.000000 +0.000000 ]
     Net charge: 1   dipole magnitude: 0
     Initializing gaussian mfKernel with width: 1.59012 Bohr
     deltaS corrections:
       site 'F': -9.04335

Correction to mu due to finite nuclear width = -0.0108966
   Cavity determined by nc: 0.00142 and sigma: 0.707107
   Nonlocal vdW cavity from gaussian model electron density with norm = 8 and sigma = 0.993594 bohr
   Charge asymmetry in cavity with sensitivity pCavity = 36.5 e-bohr/Eh
   Electrostatic cavity expanded by eta = 1.46 bohrs
   Weighted density cavitation model constrained by Nbulk: 0.0049383 bohr^-3, Pvap: 3.14029 kPa, Rvdw: 2.61727 bohr and sigmaBulk: 4.62e-05 Eh/bohr^2 at T: 298 K.
   Weighted density dispersion model using vdW pair potentials with single solvent site with sqrtC6eff: 0.77 SI.


---- Citations for features of the code used in this run ----

   Software package:
      R. Sundararaman, K. Letchworth-Weaver, K.A. Schwarz, D. Gunceler, Y. Ozhabes and T.A. Arias, 'JDFTx: software for joint density-functional theory', SoftwareX 6, 278 (2017)

   gga-PBE exchange-correlation functional:
      J.P. Perdew, K. Burke and M. Ernzerhof, Phys. Rev. Lett. 77, 3865 (1996)

   Pseudopotentials:
      KF Garrity, JW Bennett, KM Rabe and D Vanderbilt, Comput. Mater. Sci. 81, 446 (2014)

   Truncated Coulomb potentials:
      R. Sundararaman and T.A. Arias, Phys. Rev. B 87, 165122 (2013)

   Van der Waals correction pair-potentials:
      S. Grimme, J. Comput. Chem. 27, 1787 (2006)

   Charge-asymmetric nonlocally-determined local-electric (CANDLE) solvation model:
      R. Sundararaman and W.A. Goddard III, J. Chem. Phys. 142, 064107 (2015)

   Total energy minimization with Auxiliary Hamiltonian:
      C. Freysoldt, S. Boeck, and J. Neugebauer, Phys. Rev. B 79, 241103(R) (2009)

   Grand-canonical (fixed-potential) DFT:
      R. Sundararaman, W. A. Goddard III and T. A. Arias, J. Chem. Phys. 146, 114104 (2017)

This list may not be complete. Please suggest additional citations or
report any other bugs at https://github.com/shankar1729/jdftx/issues

Initialization completed successfully at t[s]:    934.28

Fluid solver invoked on fresh (partially random / LCAO) wavefunctions
Running a vacuum solve first:

-------- Initial electronic minimization -----------
	FillingsUpdate:  mu: -0.171443676  nElectrons: 413.000000  magneticMoment: [ Abs: 1.52909  Tot: +1.44951 ]
ElecMinimize: Iter:   0  G: -1230.017938879464509  |grad|_K:  8.153e-05  alpha:  1.000e+00
	FillingsUpdate:  mu: -0.078651847  nElectrons: 413.000000  magneticMoment: [ Abs: 1.06580  Tot: +0.97246 ]
	SubspaceRotationAdjust: set factor to 1
ElecMinimize: Iter:   1  G: -1231.432823968050343  |grad|_K:  4.457e-05  alpha:  7.692e-01  linmin: -1.115e-05  t[s]:   1044.87
	FillingsUpdate:  mu: -0.135617632  nElectrons: 413.000000  magneticMoment: [ Abs: 0.85045  Tot: +0.75948 ]
	SubspaceRotationAdjust: set factor to 0.71
ElecMinimize: Iter:   2  G: -1231.660164066391872  |grad|_K:  3.432e-05  alpha:  4.368e-01  linmin:  5.314e-05  t[s]:   1114.15
	FillingsUpdate:  mu: -0.116426303  nElectrons: 413.000000  magneticMoment: [ Abs: 0.69584  Tot: +0.60994 ]
	SubspaceRotationAdjust: set factor to 0.431
ElecMinimize: Iter:   3  G: -1231.740660883633382  |grad|_K:  3.227e-05  alpha:  2.483e-01  linmin: -1.011e-06  t[s]:   1182.67
	FillingsUpdate:  mu: -0.104866072  nElectrons: 413.000000  magneticMoment: [ Abs: 0.58230  Tot: +0.50279 ]
	SubspaceRotationAdjust: set factor to 0.301
ElecMinimize: Iter:   4  G: -1231.787692853510634  |grad|_K:  1.230e-05  alpha:  1.610e-01  linmin: -1.126e-06  t[s]:   1252.61
ElecMinimize: 	Predicted alpha/alphaT>3.000000, increasing alphaT to 4.829785e-01.
	FillingsUpdate:  mu: -0.107841451  nElectrons: 413.000000  magneticMoment: [ Abs: 0.47864  Tot: +0.41250 ]
	SubspaceRotationAdjust: set factor to 0.292
ElecMinimize: Iter:   5  G: -1231.810023802630212  |grad|_K:  9.666e-06  alpha:  5.313e-01  linmin:  3.030e-05  t[s]:   1344.06
	FillingsUpdate:  mu: -0.112128917  nElectrons: 413.000000  magneticMoment: [ Abs: 0.41689  Tot: +0.36076 ]
	SubspaceRotationAdjust: set factor to 0.236
ElecMinimize: Iter:   6  G: -1231.819192079272170  |grad|_K:  6.387e-06  alpha:  3.546e-01  linmin: -3.362e-07  t[s]:   1409.68
	FillingsUpdate:  mu: -0.115271371  nElectrons: 413.000000  magneticMoment: [ Abs: 0.36229  Tot: +0.31538 ]
	SubspaceRotationAdjust: set factor to 0.299
ElecMinimize: Iter:   7  G: -1231.824254977658484  |grad|_K:  3.875e-06  alpha:  4.472e-01  linmin:  1.525e-05  t[s]:   1482.05
	FillingsUpdate:  mu: -0.114947791  nElectrons: 413.000000  magneticMoment: [ Abs: 0.32219  Tot: +0.28196 ]
	SubspaceRotationAdjust: set factor to 0.249
ElecMinimize: Iter:   8  G: -1231.826409601773094  |grad|_K:  3.281e-06  alpha:  5.186e-01  linmin:  6.511e-06  t[s]:   1547.88
	FillingsUpdate:  mu: -0.113703984  nElectrons: 413.000000  magneticMoment: [ Abs: 0.28706  Tot: +0.25220 ]
	SubspaceRotationAdjust: set factor to 0.26
ElecMinimize: Iter:   9  G: -1231.827575195893587  |grad|_K:  2.104e-06  alpha:  3.900e-01  linmin:  1.595e-06  t[s]:   1612.27
	FillingsUpdate:  mu: -0.113167105  nElectrons: 413.000000  magneticMoment: [ Abs: 0.25000  Tot: +0.22045 ]
	SubspaceRotationAdjust: set factor to 0.289
ElecMinimize: Iter:  10  G: -1231.828298623466480  |grad|_K:  1.701e-06  alpha:  5.898e-01  linmin:  7.404e-06  t[s]:   1679.96
	FillingsUpdate:  mu: -0.113399642  nElectrons: 413.000000  magneticMoment: [ Abs: 0.22334  Tot: +0.19738 ]
	SubspaceRotationAdjust: set factor to 0.253
ElecMinimize: Iter:  11  G: -1231.828630451267145  |grad|_K:  1.260e-06  alpha:  4.141e-01  linmin:  2.673e-07  t[s]:   1749.98
	FillingsUpdate:  mu: -0.113733912  nElectrons: 413.000000  magneticMoment: [ Abs: 0.19404  Tot: +0.17176 ]
	SubspaceRotationAdjust: set factor to 0.319
ElecMinimize: Iter:  12  G: -1231.828851748101670  |grad|_K:  8.393e-07  alpha:  5.024e-01  linmin:  1.557e-06  t[s]:   1814.85
	FillingsUpdate:  mu: -0.113746323  nElectrons: 413.000000  magneticMoment: [ Abs: 0.17378  Tot: +0.15394 ]
	SubspaceRotationAdjust: set factor to 0.303
ElecMinimize: Iter:  13  G: -1231.828942489918745  |grad|_K:  6.368e-07  alpha:  4.644e-01  linmin:  3.189e-07  t[s]:   1878.81
	FillingsUpdate:  mu: -0.113666750  nElectrons: 413.000000  magneticMoment: [ Abs: 0.15572  Tot: +0.13791 ]
	SubspaceRotationAdjust: set factor to 0.26
ElecMinimize: Iter:  14  G: -1231.828987692630108  |grad|_K:  4.440e-07  alpha:  4.014e-01  linmin:  1.333e-07  t[s]:   1948.61
	FillingsUpdate:  mu: -0.113574961  nElectrons: 413.000000  magneticMoment: [ Abs: 0.13686  Tot: +0.12115 ]
	SubspaceRotationAdjust: set factor to 0.314
ElecMinimize: Iter:  15  G: -1231.829014280145657  |grad|_K:  2.950e-07  alpha:  4.856e-01  linmin:  1.232e-08  t[s]:   2017.51
	FillingsUpdate:  mu: -0.113570881  nElectrons: 413.000000  magneticMoment: [ Abs: 0.12155  Tot: +0.10762 ]
	SubspaceRotationAdjust: set factor to 0.311
ElecMinimize: Iter:  16  G: -1231.829026577517197  |grad|_K:  2.417e-07  alpha:  5.086e-01  linmin: -9.145e-08  t[s]:   2083.85
	FillingsUpdate:  mu: -0.113608087  nElectrons: 413.000000  magneticMoment: [ Abs: 0.10719  Tot: +0.09490 ]
	SubspaceRotationAdjust: set factor to 0.316
ElecMinimize: Iter:  17  G: -1231.829033439485102  |grad|_K:  1.694e-07  alpha:  4.228e-01  linmin:  5.345e-08  t[s]:   2155.00
	FillingsUpdate:  mu: -0.113618794  nElectrons: 413.000000  magneticMoment: [ Abs: 0.09134  Tot: +0.08085 ]
	SubspaceRotationAdjust: set factor to 0.404
ElecMinimize: Iter:  18  G: -1231.829037839218017  |grad|_K:  1.289e-07  alpha:  5.522e-01  linmin:  3.725e-07  t[s]:   2223.62
	FillingsUpdate:  mu: -0.113609029  nElectrons: 413.000000  magneticMoment: [ Abs: 0.07791  Tot: +0.06895 ]
	SubspaceRotationAdjust: set factor to 0.408
ElecMinimize: Iter:  19  G: -1231.829040131581905  |grad|_K:  1.151e-07  alpha:  4.967e-01  linmin:  1.688e-07  t[s]:   2291.28
	FillingsUpdate:  mu: -0.113607638  nElectrons: 413.000000  magneticMoment: [ Abs: 0.06543  Tot: +0.05782 ]
	SubspaceRotationAdjust: set factor to 0.377
ElecMinimize: Iter:  20  G: -1231.829041534450653  |grad|_K:  9.006e-08  alpha:  3.816e-01  linmin:  6.795e-08  t[s]:   2357.06
	FillingsUpdate:  mu: -0.113613503  nElectrons: 413.000000  magneticMoment: [ Abs: 0.05180  Tot: +0.04566 ]
	SubspaceRotationAdjust: set factor to 0.399
ElecMinimize: Iter:  21  G: -1231.829042573596325  |grad|_K:  6.511e-08  alpha:  4.613e-01  linmin:  1.803e-07  t[s]:   2423.70
	FillingsUpdate:  mu: -0.113623902  nElectrons: 413.000000  magneticMoment: [ Abs: 0.03961  Tot: +0.03482 ]
	SubspaceRotationAdjust: set factor to 0.428
ElecMinimize: Iter:  22  G: -1231.829043213269642  |grad|_K:  5.635e-08  alpha:  5.435e-01  linmin:  2.505e-08  t[s]:   2494.36
	FillingsUpdate:  mu: -0.113620576  nElectrons: 413.000000  magneticMoment: [ Abs: 0.03100  Tot: +0.02720 ]
	SubspaceRotationAdjust: set factor to 0.375
ElecMinimize: Iter:  23  G: -1231.829043550932965  |grad|_K:  4.799e-08  alpha:  3.830e-01  linmin: -8.846e-09  t[s]:   2562.56
	FillingsUpdate:  mu: -0.113609777  nElectrons: 413.000000  magneticMoment: [ Abs: 0.02140  Tot: +0.01872 ]
	SubspaceRotationAdjust: set factor to 0.404
ElecMinimize: Iter:  24  G: -1231.829043843177942  |grad|_K:  3.646e-08  alpha:  4.568e-01  linmin:  6.358e-09  t[s]:   2627.63
	FillingsUpdate:  mu: -0.113606496  nElectrons: 413.000000  magneticMoment: [ Abs: 0.01353  Tot: +0.01180 ]
	SubspaceRotationAdjust: set factor to 0.44
ElecMinimize: Iter:  25  G: -1231.829044036552204  |grad|_K:  2.907e-08  alpha:  5.236e-01  linmin: -4.853e-09  t[s]:   2695.48
	FillingsUpdate:  mu: -0.113609389  nElectrons: 413.000000  magneticMoment: [ Abs: 0.00833  Tot: +0.00724 ]
	SubspaceRotationAdjust: set factor to 0.43
ElecMinimize: Iter:  26  G: -1231.829044142727753  |grad|_K:  2.549e-08  alpha:  4.523e-01  linmin: -1.044e-08  t[s]:   2767.36
	FillingsUpdate:  mu: -0.113613046  nElectrons: 413.000000  magneticMoment: [ Abs: 0.00478  Tot: +0.00413 ]
	SubspaceRotationAdjust: set factor to 0.371
ElecMinimize: Iter:  27  G: -1231.829044206042909  |grad|_K:  1.921e-08  alpha:  3.506e-01  linmin:  4.002e-08  t[s]:   2839.55
	FillingsUpdate:  mu: -0.113612597  nElectrons: 413.000000  magneticMoment: [ Abs: 0.00207  Tot: +0.00157 ]
	SubspaceRotationAdjust: set factor to 0.401
ElecMinimize: Iter:  28  G: -1231.829044252450331  |grad|_K:  1.286e-08  alpha:  4.518e-01  linmin: -1.324e-07  t[s]:   2905.63
	FillingsUpdate:  mu: -0.113611638  nElectrons: 413.000000  magneticMoment: [ Abs: 0.00086  Tot: +0.00023 ]
	SubspaceRotationAdjust: set factor to 0.402
ElecMinimize: Iter:  29  G: -1231.829044275079696  |grad|_K:  9.860e-09  alpha:  4.915e-01  linmin: -8.656e-08  t[s]:   2973.94
	FillingsUpdate:  mu: -0.113612116  nElectrons: 413.000000  magneticMoment: [ Abs: 0.00061  Tot: -0.00040 ]
	SubspaceRotationAdjust: set factor to 0.335
ElecMinimize: Iter:  30  G: -1231.829044285489090  |grad|_K:  7.677e-09  alpha:  3.860e-01  linmin:  6.284e-09  t[s]:   3040.24
	FillingsUpdate:  mu: -0.113612577  nElectrons: 413.000000  magneticMoment: [ Abs: 0.00088  Tot: -0.00077 ]
	SubspaceRotationAdjust: set factor to 0.309
ElecMinimize: Iter:  31  G: -1231.829044291984928  |grad|_K:  5.274e-09  alpha:  3.963e-01  linmin:  5.556e-08  t[s]:   3107.04
	FillingsUpdate:  mu: -0.113612696  nElectrons: 413.000000  magneticMoment: [ Abs: 0.00107  Tot: -0.00093 ]
	SubspaceRotationAdjust: set factor to 0.35
ElecMinimize: Iter:  32  G: -1231.829044295838457  |grad|_K:  3.575e-09  alpha:  4.947e-01  linmin: -4.053e-08  t[s]:   3171.35
ElecMinimize: Converged (|Delta G|<1.000000e-08 for 2 iters).
Setting wave functions to eigenvectors of Hamiltonian
Vacuum energy after initial minimize, F = -1231.829044295838457

Shifting auxilliary hamiltonian by -0.057639 to set nElectrons=413.000000
	Linear fluid (dielectric constant: 78.4, screening length: 5.74355 Bohr) occupying 0.750895 of unit cell:	Completed after 24 iterations at t[s]:   3195.28

-------- Electronic minimization -----------
	Linear fluid (dielectric constant: 78.4, screening length: 5.74355 Bohr) occupying 0.750895 of unit cell:	Completed after 0 iterations at t[s]:   3218.16
	FillingsUpdate:  mu: -0.171251800  nElectrons: 413.000000  magneticMoment: [ Abs: 0.00071  Tot: -0.00059 ]
ElecMinimize: Iter:   0  G: -1231.823553706707798  |grad|_K:  2.418e-05  alpha:  1.000e+00
	Linear fluid (dielectric constant: 78.4, screening length: 5.74355 Bohr) occupying 0.802947 of unit cell:	Completed after 32 iterations at t[s]:   3280.54
	Linear fluid (dielectric constant: 78.4, screening length: 5.74355 Bohr) occupying 0.757781 of unit cell:	Completed after 24 iterations at t[s]:   3316.70
	FillingsUpdate:  mu: -0.171251800  nElectrons: 414.393234  magneticMoment: [ Abs: 0.00068  Tot: -0.00056 ]
	SubspaceRotationAdjust: set factor to 0.177
ElecMinimize: Iter:   1  G: -1231.830388820784719  |grad|_K:  1.990e-05  alpha:  1.559e-01  linmin:  2.550e-02  t[s]:   3345.53
	Linear fluid (dielectric constant: 78.4, screening length: 5.74355 Bohr) occupying 0.757888 of unit cell:	Completed after 15 iterations at t[s]:   3373.87
ElecMinimize: 	Predicted alpha/alphaT>3.000000, increasing alphaT to 4.677739e-01.
	Linear fluid (dielectric constant: 78.4, screening length: 5.74355 Bohr) occupying 0.758071 of unit cell:	Completed after 16 iterations at t[s]:   3398.99
	Linear fluid (dielectric constant: 78.4, screening length: 5.74355 Bohr) occupying 0.758103 of unit cell:	Completed after 13 iterations at t[s]:   3426.84
	FillingsUpdate:  mu: -0.171251800  nElectrons: 414.470866  magneticMoment: [ Abs: 0.00071  Tot: -0.00050 ]
	SubspaceRotationAdjust: set factor to 0.0693
ElecMinimize: Iter:   2  G: -1231.852245180808040  |grad|_K:  4.692e-06  alpha:  5.304e-01  linmin:  1.520e-04  t[s]:   3451.13
	Linear fluid (dielectric constant: 78.4, screening length: 5.74355 Bohr) occupying 0.762055 of unit cell:	Completed after 18 iterations at t[s]:   3475.04
	Linear fluid (dielectric constant: 78.4, screening length: 5.74355 Bohr) occupying 0.761451 of unit cell:	Completed after 12 iterations at t[s]:   3503.24
	FillingsUpdate:  mu: -0.171251800  nElectrons: 414.795779  magneticMoment: [ Abs: 0.00075  Tot: -0.00048 ]
	SubspaceRotationAdjust: set factor to 0.0431
	SubspaceRotationAdjust: resetting CG because factor has changed by 0.123396
	Linear fluid (dielectric constant: 78.4, screening length: 5.74355 Bohr) occupying 0.761451 of unit cell:	Completed after 0 iterations at t[s]:   3547.72
ElecMinimize: 	State modified externally: resetting search direction.
ElecMinimize: Iter:   3  G: -1231.855003982825110  |grad|_K:  2.787e-06  alpha:  4.533e-01
	Linear fluid (dielectric constant: 78.4, screening length: 5.74355 Bohr) occupying 0.760582 of unit cell:	Completed after 13 iterations at t[s]:   3606.96
	Linear fluid (dielectric constant: 78.4, screening length: 5.74355 Bohr) occupying 0.760075 of unit cell:	Completed after 13 iterations at t[s]:   3640.37
	FillingsUpdate:  mu: -0.171251800  nElectrons: 414.697280  magneticMoment: [ Abs: 0.00109  Tot: -0.00047 ]
	SubspaceRotationAdjust: set factor to 0.0658
ElecMinimize: Iter:   4  G: -1231.856555047610982  |grad|_K:  1.718e-06  alpha:  7.202e-01  linmin:  2.721e-04  t[s]:   3676.93
	Linear fluid (dielectric constant: 78.4, screening length: 5.74355 Bohr) occupying 0.760256 of unit cell:	Completed after 9 iterations at t[s]:   3696.18
	Linear fluid (dielectric constant: 78.4, screening length: 5.74355 Bohr) occupying 0.760290 of unit cell:	Completed after 3 iterations at t[s]:   3721.57
	FillingsUpdate:  mu: -0.171251800  nElectrons: 414.742430  magneticMoment: [ Abs: 0.00142  Tot: -0.00046 ]
	SubspaceRotationAdjust: set factor to 0.0628
ElecMinimize: Iter:   5  G: -1231.857249102486776  |grad|_K:  1.806e-06  alpha:  8.495e-01  linmin:  3.755e-06  t[s]:   3749.56
	Linear fluid (dielectric constant: 78.4, screening length: 5.74355 Bohr) occupying 0.762242 of unit cell:	Completed after 13 iterations at t[s]:   3771.68
	Linear fluid (dielectric constant: 78.4, screening length: 5.74355 Bohr) occupying 0.762445 of unit cell:	Completed after 8 iterations at t[s]:   3800.79
	FillingsUpdate:  mu: -0.171251800  nElectrons: 414.963520  magneticMoment: [ Abs: 0.00192  Tot: -0.00043 ]
	SubspaceRotationAdjust: set factor to 0.0724
ElecMinimize: Iter:   6  G: -1231.858097163650655  |grad|_K:  1.789e-06  alpha:  9.358e-01  linmin: -9.198e-06  t[s]:   3834.25
	Linear fluid (dielectric constant: 78.4, screening length: 5.74355 Bohr) occupying 0.764407 of unit cell:	Completed after 13 iterations at t[s]:   3856.17
	Linear fluid (dielectric constant: 78.4, screening length: 5.74355 Bohr) occupying 0.764215 of unit cell:	Completed after 4 iterations at t[s]:   3886.54
	FillingsUpdate:  mu: -0.171251800  nElectrons: 415.136499  magneticMoment: [ Abs: 0.00238  Tot: -0.00040 ]
	SubspaceRotationAdjust: set factor to 0.0904
ElecMinimize: Iter:   7  G: -1231.858849213843769  |grad|_K:  1.929e-06  alpha:  8.454e-01  linmin: -2.883e-07  t[s]:   3915.70
	Linear fluid (dielectric constant: 78.4, screening length: 5.74355 Bohr) occupying 0.765924 of unit cell:	Completed after 8 iterations at t[s]:   3936.74
	Linear fluid (dielectric constant: 78.4, screening length: 5.74355 Bohr) occupying 0.765758 of unit cell:	Completed after 3 iterations at t[s]:   3964.70
	FillingsUpdate:  mu: -0.171251800  nElectrons: 415.283730  magneticMoment: [ Abs: 0.00272  Tot: -0.00035 ]
	SubspaceRotationAdjust: set factor to 0.1
ElecMinimize: Iter:   8  G: -1231.859638555803940  |grad|_K:  1.810e-06  alpha:  7.635e-01  linmin:  1.183e-05  t[s]:   3992.90
	Linear fluid (dielectric constant: 78.4, screening length: 5.74355 Bohr) occupying 0.767788 of unit cell:	Completed after 13 iterations at t[s]:   4015.82
	Linear fluid (dielectric constant: 78.4, screening length: 5.74355 Bohr) occupying 0.767831 of unit cell:	Completed after 0 iterations at t[s]:   4041.92
	FillingsUpdate:  mu: -0.171251800  nElectrons: 415.466764  magneticMoment: [ Abs: 0.00257  Tot: -0.00029 ]
	SubspaceRotationAdjust: set factor to 0.107
ElecMinimize: Iter:   9  G: -1231.860347119293920  |grad|_K:  1.763e-06  alpha:  7.800e-01  linmin: -2.244e-05  t[s]:   4069.21
	Linear fluid (dielectric constant: 78.4, screening length: 5.74355 Bohr) occupying 0.769296 of unit cell:	Completed after 13 iterations at t[s]:   4095.06
	Linear fluid (dielectric constant: 78.4, screening length: 5.74355 Bohr) occupying 0.769175 of unit cell:	Completed after 2 iterations at t[s]:   4119.60
	FillingsUpdate:  mu: -0.171251800  nElectrons: 415.591323  magneticMoment: [ Abs: 0.00196  Tot: -0.00023 ]
	SubspaceRotationAdjust: set factor to 0.123
ElecMinimize: Iter:  10  G: -1231.860968790780362  |grad|_K:  1.524e-06  alpha:  7.147e-01  linmin: -1.855e-06  t[s]:   4151.72
	Linear fluid (dielectric constant: 78.4, screening length: 5.74355 Bohr) occupying 0.768927 of unit cell:	Completed after 11 iterations at t[s]:   4172.13
	Linear fluid (dielectric constant: 78.4, screening length: 5.74355 Bohr) occupying 0.768960 of unit cell:	Completed after 5 iterations at t[s]:   4200.44
	FillingsUpdate:  mu: -0.171251800  nElectrons: 415.586940  magneticMoment: [ Abs: 0.00127  Tot: -0.00018 ]
	SubspaceRotationAdjust: set factor to 0.12
ElecMinimize: Iter:  11  G: -1231.861367927045194  |grad|_K:  1.140e-06  alpha:  6.186e-01  linmin: -3.121e-07  t[s]:   4230.18
	Linear fluid (dielectric constant: 78.4, screening length: 5.74355 Bohr) occupying 0.769007 of unit cell:	Completed after 9 iterations at t[s]:   4253.27
	Linear fluid (dielectric constant: 78.4, screening length: 5.74355 Bohr) occupying 0.769000 of unit cell:	Completed after 2 iterations at t[s]:   4282.03
	FillingsUpdate:  mu: -0.171251800  nElectrons: 415.597421  magneticMoment: [ Abs: 0.00081  Tot: -0.00016 ]
	SubspaceRotationAdjust: set factor to 0.138
ElecMinimize: Iter:  12  G: -1231.861560033101114  |grad|_K:  7.593e-07  alpha:  5.322e-01  linmin:  1.250e-07  t[s]:   4313.74
	Linear fluid (dielectric constant: 78.4, screening length: 5.74355 Bohr) occupying 0.768924 of unit cell:	Completed after 4 iterations at t[s]:   4334.21
	Linear fluid (dielectric constant: 78.4, screening length: 5.74355 Bohr) occupying 0.768923 of unit cell:	Completed after 0 iterations at t[s]:   4365.72
	FillingsUpdate:  mu: -0.171251800  nElectrons: 415.594336  magneticMoment: [ Abs: 0.00059  Tot: -0.00014 ]
	SubspaceRotationAdjust: set factor to 0.175
ElecMinimize: Iter:  13  G: -1231.861646306935654  |grad|_K:  5.045e-07  alpha:  5.387e-01  linmin:  3.265e-07  t[s]:   4397.04
	Linear fluid (dielectric constant: 78.4, screening length: 5.74355 Bohr) occupying 0.768568 of unit cell:	Completed after 9 iterations at t[s]:   4419.23
	Linear fluid (dielectric constant: 78.4, screening length: 5.74355 Bohr) occupying 0.768528 of unit cell:	Completed after 2 iterations at t[s]:   4448.51
	FillingsUpdate:  mu: -0.171251800  nElectrons: 415.563324  magneticMoment: [ Abs: 0.00052  Tot: -0.00013 ]
	SubspaceRotationAdjust: set factor to 0.213
ElecMinimize: Iter:  14  G: -1231.861688450369684  |grad|_K:  4.277e-07  alpha:  5.980e-01  linmin:  1.559e-05  t[s]:   4476.19
	Linear fluid (dielectric constant: 78.4, screening length: 5.74355 Bohr) occupying 0.768296 of unit cell:	Completed after 7 iterations at t[s]:   4496.51
	Linear fluid (dielectric constant: 78.4, screening length: 5.74355 Bohr) occupying 0.768274 of unit cell:	Completed after 0 iterations at t[s]:   4524.66
	FillingsUpdate:  mu: -0.171251800  nElectrons: 415.542366  magneticMoment: [ Abs: 0.00055  Tot: -0.00011 ]
	SubspaceRotationAdjust: set factor to 0.295
ElecMinimize: Iter:  15  G: -1231.861721530015984  |grad|_K:  3.370e-07  alpha:  6.546e-01  linmin: -3.308e-05  t[s]:   4552.77
	Linear fluid (dielectric constant: 78.4, screening length: 5.74355 Bohr) occupying 0.768086 of unit cell:	Completed after 4 iterations at t[s]:   4573.71
	Linear fluid (dielectric constant: 78.4, screening length: 5.74355 Bohr) occupying 0.768094 of unit cell:	Completed after 0 iterations at t[s]:   4605.38
	FillingsUpdate:  mu: -0.171251800  nElectrons: 415.526407  magneticMoment: [ Abs: 0.00056  Tot: -0.00010 ]
	SubspaceRotationAdjust: set factor to 0.351
	SubspaceRotationAdjust: resetting CG because factor has changed by 8.13439
	Linear fluid (dielectric constant: 78.4, screening length: 5.74355 Bohr) occupying 0.768094 of unit cell:	Completed after 0 iterations at t[s]:   4645.41
ElecMinimize: 	State modified externally: resetting search direction.
ElecMinimize: Iter:  16  G: -1231.861741651135389  |grad|_K:  3.117e-07  alpha:  6.275e-01
	Linear fluid (dielectric constant: 78.4, screening length: 5.74355 Bohr) occupying 0.767848 of unit cell:	Completed after 10 iterations at t[s]:   4697.90
	Linear fluid (dielectric constant: 78.4, screening length: 5.74355 Bohr) occupying 0.767917 of unit cell:	Completed after 3 iterations at t[s]:   4727.53
	FillingsUpdate:  mu: -0.171251800  nElectrons: 415.511143  magneticMoment: [ Abs: 0.00048  Tot: -0.00009 ]
	SubspaceRotationAdjust: set factor to 0.212
ElecMinimize: Iter:  17  G: -1231.861753798947802  |grad|_K:  3.760e-07  alpha:  4.516e-01  linmin:  3.331e-05  t[s]:   4760.80
	Linear fluid (dielectric constant: 78.4, screening length: 5.74355 Bohr) occupying 0.768228 of unit cell:	Completed after 11 iterations at t[s]:   4783.16
	Linear fluid (dielectric constant: 78.4, screening length: 5.74355 Bohr) occupying 0.768069 of unit cell:	Completed after 9 iterations at t[s]:   4810.54
	FillingsUpdate:  mu: -0.171251800  nElectrons: 415.521836  magneticMoment: [ Abs: 0.00039  Tot: -0.00009 ]
	SubspaceRotationAdjust: set factor to 0.154
ElecMinimize: Iter:  18  G: -1231.861761965248661  |grad|_K:  2.659e-07  alpha:  2.197e-01  linmin:  6.374e-06  t[s]:   4838.77
	Linear fluid (dielectric constant: 78.4, screening length: 5.74355 Bohr) occupying 0.768059 of unit cell:	Completed after 0 iterations at t[s]:   4858.57
	Linear fluid (dielectric constant: 78.4, screening length: 5.74355 Bohr) occupying 0.768046 of unit cell:	Completed after 2 iterations at t[s]:   4888.00
	FillingsUpdate:  mu: -0.171251800  nElectrons: 415.517780  magneticMoment: [ Abs: 0.00024  Tot: -0.00007 ]
	SubspaceRotationAdjust: set factor to 0.192
ElecMinimize: Iter:  19  G: -1231.861772133459453  |grad|_K:  1.998e-07  alpha:  5.292e-01  linmin:  8.050e-06  t[s]:   4916.26
	Linear fluid (dielectric constant: 78.4, screening length: 5.74355 Bohr) occupying 0.767836 of unit cell:	Completed after 7 iterations at t[s]:   4937.37
	Linear fluid (dielectric constant: 78.4, screening length: 5.74355 Bohr) occupying 0.767906 of unit cell:	Completed after 3 iterations at t[s]:   4968.34
	FillingsUpdate:  mu: -0.171251800  nElectrons: 415.505593  magneticMoment: [ Abs: 0.00017  Tot: -0.00007 ]
	SubspaceRotationAdjust: set factor to 0.143
ElecMinimize: Iter:  20  G: -1231.861776055021210  |grad|_K:  1.205e-07  alpha:  3.547e-01  linmin:  6.569e-05  t[s]:   4998.21
	Linear fluid (dielectric constant: 78.4, screening length: 5.74355 Bohr) occupying 0.767909 of unit cell:	Completed after 2 iterations at t[s]:   5019.19
	Linear fluid (dielectric constant: 78.4, screening length: 5.74355 Bohr) occupying 0.767910 of unit cell:	Completed after 0 iterations at t[s]:   5051.29
	FillingsUpdate:  mu: -0.171251800  nElectrons: 415.505285  magneticMoment: [ Abs: 0.00013  Tot: -0.00006 ]
	SubspaceRotationAdjust: set factor to 0.179
ElecMinimize: Iter:  21  G: -1231.861777914996310  |grad|_K:  8.461e-08  alpha:  4.722e-01  linmin: -6.228e-05  t[s]:   5085.08
	Linear fluid (dielectric constant: 78.4, screening length: 5.74355 Bohr) occupying 0.767918 of unit cell:	Completed after 2 iterations at t[s]:   5104.99
	Linear fluid (dielectric constant: 78.4, screening length: 5.74355 Bohr) occupying 0.767915 of unit cell:	Completed after 0 iterations at t[s]:   5131.84
	FillingsUpdate:  mu: -0.171251800  nElectrons: 415.505466  magneticMoment: [ Abs: 0.00011  Tot: -0.00006 ]
	SubspaceRotationAdjust: set factor to 0.121
ElecMinimize: Iter:  22  G: -1231.861778574012988  |grad|_K:  7.942e-08  alpha:  3.267e-01  linmin:  1.385e-05  t[s]:   5161.41
	Linear fluid (dielectric constant: 78.4, screening length: 5.74355 Bohr) occupying 0.767850 of unit cell:	Completed after 3 iterations at t[s]:   5180.62
	Linear fluid (dielectric constant: 78.4, screening length: 5.74355 Bohr) occupying 0.767867 of unit cell:	Completed after 0 iterations at t[s]:   5208.82
	FillingsUpdate:  mu: -0.171251800  nElectrons: 415.501382  magneticMoment: [ Abs: 0.00010  Tot: -0.00005 ]
	SubspaceRotationAdjust: set factor to 0.144
ElecMinimize: Iter:  23  G: -1231.861778961487289  |grad|_K:  5.600e-08  alpha:  2.448e-01  linmin: -1.561e-05  t[s]:   5242.34
	Linear fluid (dielectric constant: 78.4, screening length: 5.74355 Bohr) occupying 0.767839 of unit cell:	Completed after 0 iterations at t[s]:   5259.23
	Linear fluid (dielectric constant: 78.4, screening length: 5.74355 Bohr) occupying 0.767804 of unit cell:	Completed after 0 iterations at t[s]:   5288.75
	FillingsUpdate:  mu: -0.171251800  nElectrons: 415.496130  magneticMoment: [ Abs: 0.00008  Tot: -0.00005 ]
	SubspaceRotationAdjust: set factor to 0.16
ElecMinimize: Iter:  24  G: -1231.861779460917433  |grad|_K:  4.534e-08  alpha:  5.566e-01  linmin:  1.137e-07  t[s]:   5319.63
	Linear fluid (dielectric constant: 78.4, screening length: 5.74355 Bohr) occupying 0.767731 of unit cell:	Completed after 6 iterations at t[s]:   5340.13
	Linear fluid (dielectric constant: 78.4, screening length: 5.74355 Bohr) occupying 0.767786 of unit cell:	Completed after 2 iterations at t[s]:   5368.75
ElecMinimize: 	Step increased G by 1.875740e-07, reducing alpha to 1.417887e-02.
	Linear fluid (dielectric constant: 78.4, screening length: 5.74355 Bohr) occupying 0.767802 of unit cell:	Completed after 0 iterations at t[s]:   5416.79
ElecMinimize: 	Step increased G by 1.210249e-07, reducing alpha to 1.417887e-03.
	Linear fluid (dielectric constant: 78.4, screening length: 5.74355 Bohr) occupying 0.767804 of unit cell:	Completed after 0 iterations at t[s]:   5463.72
ElecMinimize: 	Step increased G by 1.147389e-07, reducing alpha to 1.417887e-04.
ElecMinimize: 	Step failed to reduce G after 3 attempts. Quitting step.
ElecMinimize: 	Undoing step.
	Linear fluid (dielectric constant: 78.4, screening length: 5.74355 Bohr) occupying 0.767804 of unit cell:	Completed after 0 iterations at t[s]:   5506.30
ElecMinimize: 	Step failed: resetting search direction.
	FillingsUpdate:  mu: -0.171251800  nElectrons: 415.496116  magneticMoment: [ Abs: 0.00008  Tot: -0.00005 ]
	SubspaceRotationAdjust: set factor to 0.117
ElecMinimize: Iter:  25  G: -1231.861779346234471  |grad|_K:  8.679e-08  alpha:  1.418e-04
	Linear fluid (dielectric constant: 78.4, screening length: 5.74355 Bohr) occupying 0.767918 of unit cell:	Completed after 8 iterations at t[s]:   5560.91
	Linear fluid (dielectric constant: 78.4, screening length: 5.74355 Bohr) occupying 0.767841 of unit cell:	Completed after 3 iterations at t[s]:   5585.69
	FillingsUpdate:  mu: -0.171251800  nElectrons: 415.498988  magneticMoment: [ Abs: 0.00008  Tot: -0.00005 ]
	SubspaceRotationAdjust: set factor to 0.0502
ElecMinimize: Iter:  26  G: -1231.861779582558711  |grad|_K:  4.035e-08  alpha:  1.788e-01  linmin:  2.137e-03  t[s]:   5612.62
	Linear fluid (dielectric constant: 78.4, screening length: 5.74355 Bohr) occupying 0.767833 of unit cell:	Completed after 0 iterations at t[s]:   5632.64
ElecMinimize: 	Predicted alpha/alphaT>3.000000, increasing alphaT to 5.363505e-01.
	Linear fluid (dielectric constant: 78.4, screening length: 5.74355 Bohr) occupying 0.767817 of unit cell:	Completed after 0 iterations at t[s]:   5656.85
	Linear fluid (dielectric constant: 78.4, screening length: 5.74355 Bohr) occupying 0.767811 of unit cell:	Completed after 2 iterations at t[s]:   5686.18
	FillingsUpdate:  mu: -0.171251800  nElectrons: 415.496521  magneticMoment: [ Abs: 0.00007  Tot: -0.00005 ]
	SubspaceRotationAdjust: set factor to 0.0422
	SubspaceRotationAdjust: resetting CG because factor has changed by 0.120177
	Linear fluid (dielectric constant: 78.4, screening length: 5.74355 Bohr) occupying 0.767811 of unit cell:	Completed after 0 iterations at t[s]:   5727.31
ElecMinimize: 	State modified externally: resetting search direction.
ElecMinimize: Iter:  27  G: -1231.861779589419029  |grad|_K:  3.916e-08  alpha:  6.689e-01
	Linear fluid (dielectric constant: 78.4, screening length: 5.74355 Bohr) occupying 0.767817 of unit cell:	Completed after 0 iterations at t[s]:   5778.13
	Linear fluid (dielectric constant: 78.4, screening length: 5.74355 Bohr) occupying 0.767813 of unit cell:	Completed after 0 iterations at t[s]:   5799.68
	FillingsUpdate:  mu: -0.171251800  nElectrons: 415.496704  magneticMoment: [ Abs: 0.00007  Tot: -0.00005 ]
	SubspaceRotationAdjust: set factor to 0.0209
ElecMinimize: Iter:  28  G: -1231.861779712768111  |grad|_K:  1.721e-08  alpha:  2.897e-01  linmin: -1.251e-07  t[s]:   5830.99
	Linear fluid (dielectric constant: 78.4, screening length: 5.74355 Bohr) occupying 0.767816 of unit cell:	Completed after 0 iterations at t[s]:   5852.47
ElecMinimize: 	Predicted alpha/alphaT>3.000000, increasing alphaT to 8.689705e-01.
	Linear fluid (dielectric constant: 78.4, screening length: 5.74355 Bohr) occupying 0.767823 of unit cell:	Completed after 2 iterations at t[s]:   5877.75
	Linear fluid (dielectric constant: 78.4, screening length: 5.74355 Bohr) occupying 0.767816 of unit cell:	Completed after 0 iterations at t[s]:   5906.18
ElecMinimize: 	Step increased G by 2.937850e-08, reducing alpha to 2.373612e-02.
	Linear fluid (dielectric constant: 78.4, screening length: 5.74355 Bohr) occupying 0.767814 of unit cell:	Completed after 0 iterations at t[s]:   5950.03
ElecMinimize: 	Step increased G by 1.330704e-08, reducing alpha to 2.373612e-03.
	Linear fluid (dielectric constant: 78.4, screening length: 5.74355 Bohr) occupying 0.767813 of unit cell:	Completed after 0 iterations at t[s]:   5999.83
ElecMinimize: 	Step increased G by 1.208969e-08, reducing alpha to 2.373612e-04.
ElecMinimize: 	Step failed to reduce G after 3 attempts. Quitting step.
ElecMinimize: 	Undoing step.
	Linear fluid (dielectric constant: 78.4, screening length: 5.74355 Bohr) occupying 0.767813 of unit cell:	Completed after 0 iterations at t[s]:   6044.75
ElecMinimize: 	Step failed: resetting search direction.
	FillingsUpdate:  mu: -0.171251800  nElectrons: 415.496706  magneticMoment: [ Abs: 0.00007  Tot: -0.00005 ]
	SubspaceRotationAdjust: set factor to 0.0166
ElecMinimize: Iter:  29  G: -1231.861779700693205  |grad|_K:  1.656e-08  alpha:  2.374e-04
	Linear fluid (dielectric constant: 78.4, screening length: 5.74355 Bohr) occupying 0.767810 of unit cell:	Completed after 0 iterations at t[s]:   6091.29
	Linear fluid (dielectric constant: 78.4, screening length: 5.74355 Bohr) occupying 0.767807 of unit cell:	Completed after 0 iterations at t[s]:   6111.61
	FillingsUpdate:  mu: -0.171251800  nElectrons: 415.496188  magneticMoment: [ Abs: 0.00007  Tot: -0.00005 ]
	SubspaceRotationAdjust: set factor to 0.0226
ElecMinimize: Iter:  30  G: -1231.861779744723890  |grad|_K:  1.894e-08  alpha:  5.779e-01  linmin: -6.003e-08  t[s]:   6135.86
	Linear fluid (dielectric constant: 78.4, screening length: 5.74355 Bohr) occupying 0.767794 of unit cell:	Completed after 2 iterations at t[s]:   6154.65
	Linear fluid (dielectric constant: 78.4, screening length: 5.74355 Bohr) occupying 0.767805 of unit cell:	Completed after 0 iterations at t[s]:   6175.98
ElecMinimize: 	Step increased G by 1.218170e-07, reducing alpha to 9.811631e-03.
	Linear fluid (dielectric constant: 78.4, screening length: 5.74355 Bohr) occupying 0.767807 of unit cell:	Completed after 0 iterations at t[s]:   6219.32
ElecMinimize: 	Step increased G by 1.033145e-07, reducing alpha to 9.811631e-04.
	Linear fluid (dielectric constant: 78.4, screening length: 5.74355 Bohr) occupying 0.767807 of unit cell:	Completed after 0 iterations at t[s]:   6267.34
ElecMinimize: 	Step increased G by 1.014807e-07, reducing alpha to 9.811631e-05.
ElecMinimize: 	Step failed to reduce G after 3 attempts. Quitting step.
ElecMinimize: 	Undoing step.
	Linear fluid (dielectric constant: 78.4, screening length: 5.74355 Bohr) occupying 0.767807 of unit cell:	Completed after 0 iterations at t[s]:   6310.71
ElecMinimize: 	Step failed: resetting search direction.
	FillingsUpdate:  mu: -0.171251800  nElectrons: 415.496187  magneticMoment: [ Abs: 0.00007  Tot: -0.00005 ]
	SubspaceRotationAdjust: set factor to 0.0208
ElecMinimize: Iter:  31  G: -1231.861779643260888  |grad|_K:  2.889e-08  alpha:  9.812e-05
	Linear fluid (dielectric constant: 78.4, screening length: 5.74355 Bohr) occupying 0.767813 of unit cell:	Completed after 1 iterations at t[s]:   6352.29
	Linear fluid (dielectric constant: 78.4, screening length: 5.74355 Bohr) occupying 0.767810 of unit cell:	Completed after 0 iterations at t[s]:   6375.06
	FillingsUpdate:  mu: -0.171251800  nElectrons: 415.496399  magneticMoment: [ Abs: 0.00007  Tot: -0.00005 ]
	SubspaceRotationAdjust: set factor to 0.0265
ElecMinimize: Iter:  32  G: -1231.861779663378911  |grad|_K:  8.632e-09  alpha:  2.606e-01  linmin:  2.760e-04  t[s]:   6401.18
	Linear fluid (dielectric constant: 78.4, screening length: 5.74355 Bohr) occupying 0.767810 of unit cell:	Completed after 0 iterations at t[s]:   6420.99
ElecMinimize: 	Predicted alpha/alphaT>3.000000, increasing alphaT to 7.817280e-01.
	Linear fluid (dielectric constant: 78.4, screening length: 5.74355 Bohr) occupying 0.767811 of unit cell:	Completed after 0 iterations at t[s]:   6444.68
	Linear fluid (dielectric constant: 78.4, screening length: 5.74355 Bohr) occupying 0.767811 of unit cell:	Completed after 0 iterations at t[s]:   6471.29
	FillingsUpdate:  mu: -0.171251800  nElectrons: 415.496439  magneticMoment: [ Abs: 0.00007  Tot: -0.00004 ]
	SubspaceRotationAdjust: set factor to 0.0302
ElecMinimize: Iter:  33  G: -1231.861779689661944  |grad|_K:  1.054e-08  alpha:  1.318e+00  linmin:  4.850e-08  t[s]:   6497.22
	Linear fluid (dielectric constant: 78.4, screening length: 5.74355 Bohr) occupying 0.767814 of unit cell:	Completed after 1 iterations at t[s]:   6514.52
	Linear fluid (dielectric constant: 78.4, screening length: 5.74355 Bohr) occupying 0.767812 of unit cell:	Completed after 0 iterations at t[s]:   6542.43
ElecMinimize: 	Step increased G by 2.498018e-08, reducing alpha to 3.127886e-02.
	Linear fluid (dielectric constant: 78.4, screening length: 5.74355 Bohr) occupying 0.767811 of unit cell:	Completed after 0 iterations at t[s]:   6584.88
ElecMinimize: 	Step increased G by 2.596312e-08, reducing alpha to 3.127886e-03.
	Linear fluid (dielectric constant: 78.4, screening length: 5.74355 Bohr) occupying 0.767811 of unit cell:	Completed after 0 iterations at t[s]:   6631.66
ElecMinimize: 	Step increased G by 2.651655e-08, reducing alpha to 3.127886e-04.
ElecMinimize: 	Step failed to reduce G after 3 attempts. Quitting step.
ElecMinimize: 	Undoing step.
	Linear fluid (dielectric constant: 78.4, screening length: 5.74355 Bohr) occupying 0.767811 of unit cell:	Completed after 0 iterations at t[s]:   6671.28
ElecMinimize: 	Step failed: resetting search direction.
	FillingsUpdate:  mu: -0.171251800  nElectrons: 415.496439  magneticMoment: [ Abs: 0.00007  Tot: -0.00004 ]
	SubspaceRotationAdjust: set factor to 0.0325
ElecMinimize: Iter:  34  G: -1231.861779663137895  |grad|_K:  1.470e-08  alpha:  3.128e-04
	Linear fluid (dielectric constant: 78.4, screening length: 5.74355 Bohr) occupying 0.767804 of unit cell:	Completed after 0 iterations at t[s]:   6716.12
	Linear fluid (dielectric constant: 78.4, screening length: 5.74355 Bohr) occupying 0.767809 of unit cell:	Completed after 0 iterations at t[s]:   6742.13
	FillingsUpdate:  mu: -0.171251800  nElectrons: 415.496232  magneticMoment: [ Abs: 0.00007  Tot: -0.00004 ]
	SubspaceRotationAdjust: set factor to 0.0419
ElecMinimize: Iter:  35  G: -1231.861779690191952  |grad|_K:  1.152e-08  alpha:  4.508e-01  linmin: -5.882e-10  t[s]:   6770.97
	Linear fluid (dielectric constant: 78.4, screening length: 5.74355 Bohr) occupying 0.767805 of unit cell:	Completed after 0 iterations at t[s]:   6786.06
	Linear fluid (dielectric constant: 78.4, screening length: 5.74355 Bohr) occupying 0.767802 of unit cell:	Completed after 0 iterations at t[s]:   6809.47
	FillingsUpdate:  mu: -0.171251800  nElectrons: 415.495611  magneticMoment: [ Abs: 0.00007  Tot: -0.00004 ]
	SubspaceRotationAdjust: set factor to 0.054
ElecMinimize: Iter:  36  G: -1231.861779718524531  |grad|_K:  1.268e-08  alpha:  7.703e-01  linmin:  7.761e-07  t[s]:   6833.65
	Linear fluid (dielectric constant: 78.4, screening length: 5.74355 Bohr) occupying 0.767786 of unit cell:	Completed after 3 iterations at t[s]:   6852.49
	Linear fluid (dielectric constant: 78.4, screening length: 5.74355 Bohr) occupying 0.767800 of unit cell:	Completed after 0 iterations at t[s]:   6877.17
ElecMinimize: 	Step increased G by 5.509992e-08, reducing alpha to 1.009048e-02.
	Linear fluid (dielectric constant: 78.4, screening length: 5.74355 Bohr) occupying 0.767802 of unit cell:	Completed after 0 iterations at t[s]:   6921.43
ElecMinimize: 	Step increased G by 3.738342e-08, reducing alpha to 1.009048e-03.
	Linear fluid (dielectric constant: 78.4, screening length: 5.74355 Bohr) occupying 0.767802 of unit cell:	Completed after 0 iterations at t[s]:   6964.03
ElecMinimize: 	Step increased G by 3.566015e-08, reducing alpha to 1.009048e-04.
ElecMinimize: 	Step failed to reduce G after 3 attempts. Quitting step.
ElecMinimize: 	Undoing step.
	Linear fluid (dielectric constant: 78.4, screening length: 5.74355 Bohr) occupying 0.767802 of unit cell:	Completed after 0 iterations at t[s]:   7006.04
ElecMinimize: 	Step failed: resetting search direction.
	FillingsUpdate:  mu: -0.171251800  nElectrons: 415.495609  magneticMoment: [ Abs: 0.00007  Tot: -0.00004 ]
	SubspaceRotationAdjust: set factor to 0.0513
ElecMinimize: Iter:  37  G: -1231.861779682905990  |grad|_K:  3.786e-08  alpha:  1.009e-04
	Linear fluid (dielectric constant: 78.4, screening length: 5.74355 Bohr) occupying 0.767827 of unit cell:	Completed after 2 iterations at t[s]:   7051.63
	Linear fluid (dielectric constant: 78.4, screening length: 5.74355 Bohr) occupying 0.767811 of unit cell:	Completed after 2 iterations at t[s]:   7077.21
	FillingsUpdate:  mu: -0.171251800  nElectrons: 415.496329  magneticMoment: [ Abs: 0.00007  Tot: -0.00004 ]
	SubspaceRotationAdjust: set factor to 0.0308
ElecMinimize: Iter:  38  G: -1231.861779699845329  |grad|_K:  9.777e-09  alpha:  2.801e-01  linmin:  1.106e-03  t[s]:   7099.76
	Linear fluid (dielectric constant: 78.4, screening length: 5.74355 Bohr) occupying 0.767809 of unit cell:	Completed after 0 iterations at t[s]:   7118.89
ElecMinimize: 	Predicted alpha/alphaT>3.000000, increasing alphaT to 8.401599e-01.
	Linear fluid (dielectric constant: 78.4, screening length: 5.74355 Bohr) occupying 0.767806 of unit cell:	Completed after 0 iterations at t[s]:   7141.76
	Linear fluid (dielectric constant: 78.4, screening length: 5.74355 Bohr) occupying 0.767800 of unit cell:	Completed after 0 iterations at t[s]:   7168.34
	FillingsUpdate:  mu: -0.171251800  nElectrons: 415.495314  magneticMoment: [ Abs: 0.00007  Tot: -0.00004 ]
	SubspaceRotationAdjust: set factor to 0.038
ElecMinimize: Iter:  39  G: -1231.861779744089972  |grad|_K:  1.580e-08  alpha:  2.027e+00  linmin: -2.669e-07  t[s]:   7194.96
	Linear fluid (dielectric constant: 78.4, screening length: 5.74355 Bohr) occupying 0.767756 of unit cell:	Completed after 3 iterations at t[s]:   7215.24
	Linear fluid (dielectric constant: 78.4, screening length: 5.74355 Bohr) occupying 0.767794 of unit cell:	Completed after 2 iterations at t[s]:   7238.41
ElecMinimize: 	Step increased G by 1.059639e-07, reducing alpha to 2.765682e-02.
	Linear fluid (dielectric constant: 78.4, screening length: 5.74355 Bohr) occupying 0.767799 of unit cell:	Completed after 0 iterations at t[s]:   7280.96
ElecMinimize: 	Step increased G by 7.689050e-08, reducing alpha to 2.765682e-03.
	Linear fluid (dielectric constant: 78.4, screening length: 5.74355 Bohr) occupying 0.767800 of unit cell:	Completed after 0 iterations at t[s]:   7322.54
ElecMinimize: 	Step increased G by 7.443873e-08, reducing alpha to 2.765682e-04.
ElecMinimize: 	Step failed to reduce G after 3 attempts. Quitting step.
ElecMinimize: 	Undoing step.
	Linear fluid (dielectric constant: 78.4, screening length: 5.74355 Bohr) occupying 0.767800 of unit cell:	Completed after 0 iterations at t[s]:   7367.76
ElecMinimize: 	Step failed: resetting search direction.
	FillingsUpdate:  mu: -0.171251800  nElectrons: 415.495310  magneticMoment: [ Abs: 0.00007  Tot: -0.00004 ]
	SubspaceRotationAdjust: set factor to 0.0367
ElecMinimize: Iter:  40  G: -1231.861779669673979  |grad|_K:  3.452e-08  alpha:  2.766e-04
	Linear fluid (dielectric constant: 78.4, screening length: 5.74355 Bohr) occupying 0.767835 of unit cell:	Completed after 2 iterations at t[s]:   7417.74
	Linear fluid (dielectric constant: 78.4, screening length: 5.74355 Bohr) occupying 0.767806 of unit cell:	Completed after 2 iterations at t[s]:   7441.83
	FillingsUpdate:  mu: -0.171251800  nElectrons: 415.495795  magneticMoment: [ Abs: 0.00007  Tot: -0.00004 ]
	SubspaceRotationAdjust: set factor to 0.0357
ElecMinimize: Iter:  41  G: -1231.861779748807521  |grad|_K:  1.091e-08  alpha:  3.506e-01  linmin:  8.881e-04  t[s]:   7470.91
	Linear fluid (dielectric constant: 78.4, screening length: 5.74355 Bohr) occupying 0.767806 of unit cell:	Completed after 0 iterations at t[s]:   7488.26
	Linear fluid (dielectric constant: 78.4, screening length: 5.74355 Bohr) occupying 0.767805 of unit cell:	Completed after 0 iterations at t[s]:   7510.27
	FillingsUpdate:  mu: -0.171251800  nElectrons: 415.495749  magneticMoment: [ Abs: 0.00007  Tot: -0.00004 ]
	SubspaceRotationAdjust: set factor to 0.0446
ElecMinimize: Iter:  42  G: -1231.861779763344657  |grad|_K:  9.003e-09  alpha:  5.761e-01  linmin: -5.946e-07  t[s]:   7537.07
	Linear fluid (dielectric constant: 78.4, screening length: 5.74355 Bohr) occupying 0.767804 of unit cell:	Completed after 0 iterations at t[s]:   7553.92
	Linear fluid (dielectric constant: 78.4, screening length: 5.74355 Bohr) occupying 0.767804 of unit cell:	Completed after 0 iterations at t[s]:   7577.26
	FillingsUpdate:  mu: -0.171251800  nElectrons: 415.495565  magneticMoment: [ Abs: 0.00006  Tot: -0.00004 ]
	SubspaceRotationAdjust: set factor to 0.0569
ElecMinimize: Iter:  43  G: -1231.861779778699656  |grad|_K:  8.404e-09  alpha:  6.808e-01  linmin: -2.887e-07  t[s]:   7604.24
	Linear fluid (dielectric constant: 78.4, screening length: 5.74355 Bohr) occupying 0.767800 of unit cell:	Completed after 0 iterations at t[s]:   7623.77
	Linear fluid (dielectric constant: 78.4, screening length: 5.74355 Bohr) occupying 0.767802 of unit cell:	Completed after 0 iterations at t[s]:   7647.77
ElecMinimize: 	Step increased G by 1.450849e-08, reducing alpha to 2.724082e-02.
	Linear fluid (dielectric constant: 78.4, screening length: 5.74355 Bohr) occupying 0.767803 of unit cell:	Completed after 0 iterations at t[s]:   7691.08
ElecMinimize: 	Step increased G by 2.129173e-08, reducing alpha to 2.724082e-03.
	Linear fluid (dielectric constant: 78.4, screening length: 5.74355 Bohr) occupying 0.767804 of unit cell:	Completed after 0 iterations at t[s]:   7733.50
ElecMinimize: 	Step increased G by 2.204229e-08, reducing alpha to 2.724082e-04.
ElecMinimize: 	Step failed to reduce G after 3 attempts. Quitting step.
ElecMinimize: 	Undoing step.
	Linear fluid (dielectric constant: 78.4, screening length: 5.74355 Bohr) occupying 0.767804 of unit cell:	Completed after 0 iterations at t[s]:   7778.89
ElecMinimize: 	Step failed: resetting search direction.
	FillingsUpdate:  mu: -0.171251800  nElectrons: 415.495563  magneticMoment: [ Abs: 0.00006  Tot: -0.00004 ]
	SubspaceRotationAdjust: set factor to 0.0719
ElecMinimize: Iter:  44  G: -1231.861779756662145  |grad|_K:  9.168e-09  alpha:  2.724e-04
	Linear fluid (dielectric constant: 78.4, screening length: 5.74355 Bohr) occupying 0.767801 of unit cell:	Completed after 0 iterations at t[s]:   7823.09
	Linear fluid (dielectric constant: 78.4, screening length: 5.74355 Bohr) occupying 0.767802 of unit cell:	Completed after 0 iterations at t[s]:   7849.10
	FillingsUpdate:  mu: -0.171251800  nElectrons: 415.495437  magneticMoment: [ Abs: 0.00006  Tot: -0.00004 ]
	SubspaceRotationAdjust: set factor to 0.0711
ElecMinimize: Iter:  45  G: -1231.861779767313010  |grad|_K:  7.779e-09  alpha:  4.572e-01  linmin: -1.361e-07  t[s]:   7873.44
	Linear fluid (dielectric constant: 78.4, screening length: 5.74355 Bohr) occupying 0.767799 of unit cell:	Completed after 0 iterations at t[s]:   7892.00
	Linear fluid (dielectric constant: 78.4, screening length: 5.74355 Bohr) occupying 0.767795 of unit cell:	Completed after 0 iterations at t[s]:   7916.29
	FillingsUpdate:  mu: -0.171251800  nElectrons: 415.494802  magneticMoment: [ Abs: 0.00006  Tot: -0.00004 ]
	SubspaceRotationAdjust: set factor to 0.088
ElecMinimize: Iter:  46  G: -1231.861779785320778  |grad|_K:  1.184e-08  alpha:  1.073e+00  linmin:  2.141e-07  t[s]:   7943.23
	Linear fluid (dielectric constant: 78.4, screening length: 5.74355 Bohr) occupying 0.767771 of unit cell:	Completed after 2 iterations at t[s]:   7965.48
	Linear fluid (dielectric constant: 78.4, screening length: 5.74355 Bohr) occupying 0.767788 of unit cell:	Completed after 0 iterations at t[s]:   7990.41
	FillingsUpdate:  mu: -0.171251800  nElectrons: 415.494185  magneticMoment: [ Abs: 0.00005  Tot: -0.00004 ]
	SubspaceRotationAdjust: set factor to 0.062
ElecMinimize: Iter:  47  G: -1231.861779788047215  |grad|_K:  3.115e-08  alpha:  3.131e-01  linmin:  3.635e-05  t[s]:   8016.55
	Linear fluid (dielectric constant: 78.4, screening length: 5.74355 Bohr) occupying 0.767757 of unit cell:	Completed after 0 iterations at t[s]:   8034.60
	Linear fluid (dielectric constant: 78.4, screening length: 5.74355 Bohr) occupying 0.767788 of unit cell:	Completed after 0 iterations at t[s]:   8059.50
	FillingsUpdate:  mu: -0.171251800  nElectrons: 415.494168  magneticMoment: [ Abs: 0.00005  Tot: -0.00004 ]
	SubspaceRotationAdjust: set factor to 0.049
ElecMinimize: Iter:  48  G: -1231.861779788059266  |grad|_K:  2.765e-08  alpha:  1.819e-03  linmin: -6.752e-10  t[s]:   8087.93
ElecMinimize: Converged (|Delta G|<1.000000e-08 for 2 iters).
Setting wave functions to eigenvectors of Hamiltonian
Single-point solvation energy estimate, DeltaG = -0.032735492220809

# Ionic positions in lattice coordinates:
ion Ta   0.170974051260658   0.084251389004829   0.503868809278205 1
ion Ta   0.417702417876232   0.084410894804354   0.504424990836826 1
ion Ta   0.669781565253832   0.084591285932098   0.504616596336285 1
ion Ta   0.919119730154337   0.084601741284441   0.504322604928375 1
ion Ta   0.169371354521626   0.334377147114415   0.504260385300409 1
ion Ta   0.413309373467128   0.322431562635549   0.504851394839760 1
ion Ta   0.669732326949177   0.334247253102274   0.504335406189584 1
ion Ta   0.919104675426623   0.333885377016085   0.504393906567171 1
ion Ta   0.170946797227776   0.586024938734530   0.504182488806453 1
ion Ta   0.413290839398403   0.590147477158318   0.504866210170595 1
ion Ta   0.681013510204976   0.590227782928228   0.504418575133716 1
ion Ta   0.919269761797606   0.586017316749594   0.504110600335559 1
ion Ta   0.169487485088374   0.834405203702310   0.504042999253747 1
ion Ta   0.417735657445868   0.832606620580865   0.504643974607803 1
ion Ta   0.669658801355065   0.834810598044449   0.504505191709285 1
ion Ta   0.919300751104922   0.832625540398999   0.503995245551591 1
ion S   0.003043430961382   0.000685067556792   0.589667007957006 1
ion S   0.002742598914106   0.000826140354894   0.418320992181435 1
ion S   0.251957979648303   1.000005885446902   0.590921027997749 1
ion S   0.252585068659026   0.000295597706323   0.417228345655350 1
ion S   0.502053305266760   0.000776536710704   0.590208026585501 1
ion S   0.502254013416215   0.000704868063448   0.418909514927314 1
ion S   0.752920587145869   0.001236324313584   0.590943641584176 1
ion S   0.752633924828354   0.001268586488148   0.418028512219275 1
ion S   0.002719054536757   0.251014257075720   0.590718686306871 1
ion S   0.002524490503349   0.250985406940797   0.417914053686792 1
ion S   0.250019966399845   0.249371168416249   0.591371092118119 1
ion S   0.251233588683035   0.250512405874878   0.416994145230567 1
ion S   0.503997336877775   0.249954454926248   0.591700010269199 1
ion S   0.503693763933487   0.250406065964163   0.417382494447733 1
ion S   0.752844326393547   0.251095436760594   0.590917736760029 1
ion S   0.752731284001948   0.250730614706591   0.417973331318729 1
ion S   0.002904483461562   0.501633894946626   0.589858406147221 1
ion S   0.002840204262466   0.501349256886408   0.418519718730870 1
ion S   0.250163582346307   0.499934875401600   0.591513488883761 1
ion S   0.251137349880869   0.500169914197282   0.417120016459223 1
ion S   0.504261824736196   0.501706848275360   0.580403822639576 1
ion S   0.502358109652849   0.500845633905983   0.427153478329329 1
ion S   0.753924885977376   0.499974340481104   0.591531706238207 1
ion S   0.753207876703126   0.499886559253856   0.417058345337870 1
ion S   0.003654530661510   0.751556292117345   0.590807173161054 1
ion S   0.003526907385839   0.751384608461406   0.417192009814325 1
ion S   0.251940097452812   0.751404613563366   0.591099785119503 1
ion S   0.252631192868428   0.751499276819229   0.417435506005646 1
ion S   0.503876479654252   0.753069187411662   0.591922132160335 1
ion S   0.503676575775028   0.752659216782176   0.417534122844577 1
ion S   0.754069038113157   0.753344423765779   0.591558651468174 1
ion S   0.753092917879963   0.752731982261861   0.417069573490132 1
ion O   0.529753153256680   0.516698720090021   0.673011890918409 1
ion O   0.420916754199764   0.462911165038099   0.715828850839112 1
ion H   0.422540326029461   0.394968269843451   0.736932870321547 1


# Forces in Lattice coordinates:
force Ta  -0.001277918437040   0.001393486109075   0.002156662684553 1
force Ta   0.003612795454888  -0.000688450369758   0.000715714534599 1
force Ta   0.001168608490296  -0.001678553945852  -0.000620771911085 1
force Ta  -0.001044810343828  -0.000782027476141  -0.000130170844787 1
force Ta  -0.000343827908808   0.000098958629326   0.000902471774820 1
force Ta   0.000612634794084   0.000628962507667   0.000395806254882 1
force Ta   0.000566974188908  -0.000950839986889   0.001857763695805 1
force Ta  -0.000484470649318   0.000443718717058  -0.000444304313766 1
force Ta   0.000575622944423  -0.001309558012704  -0.000569893106644 1
force Ta   0.001117655096400   0.000390153163751   0.000575512595125 1
force Ta  -0.001248445921934   0.000854134396971  -0.001249415082422 1
force Ta  -0.001930177965138  -0.000431073397444   0.000864325039753 1
force Ta  -0.000293616068241  -0.000423011305776  -0.000212386935217 1
force Ta   0.003693963594139  -0.000811117646977  -0.000336061741319 1
force Ta  -0.000574722894179   0.000626308105947   0.000933525143459 1
force Ta  -0.003030544664439   0.000335087953365   0.001942327433953 1
force S   0.000097803959649  -0.000837961435251   0.006364554963473 1
force S   0.000933948300549  -0.000641513086402   0.002679182711196 1
force S   0.001074793338603  -0.001086380426127   0.006926373250264 1
force S  -0.000019073720763   0.000091115202757   0.000969205034208 1
force S   0.001692506679451  -0.001030105778425   0.002933303093851 1
force S   0.000963015135578   0.000166179440078  -0.000183101049451 1
force S   0.000514964421137  -0.001347410838687   0.002982036795186 1
force S   0.001248430310123  -0.000966631118014   0.000580376693280 1
force S   0.000596832837781   0.000086853441979   0.004672666780221 1
force S   0.000991202571831  -0.000337970726692   0.000874479459790 1
force S  -0.000565326151965   0.001157620888986   0.007513808138171 1
force S   0.001141283169092  -0.000496138575378   0.001611651882826 1
force S   0.000108707790959  -0.000154528150380   0.005692195892618 1
force S  -0.001183423252318   0.000923225995309   0.001539167280910 1
force S   0.000404234209650  -0.000046676634760   0.003626342166920 1
force S   0.000053731579713   0.000629078496197   0.001304920879504 1
force S   0.000065317120706   0.000789009407963   0.004699242489127 1
force S   0.000062471742920   0.000433068763404  -0.000511202702477 1
force S  -0.000549876469710   0.000992196246142   0.005533123712360 1
force S   0.001218980828981  -0.000103065430015  -0.001098280245687 1
force S  -0.000340334072420   0.000012266158673   0.005686676369889 1
force S  -0.000333230068550   0.000309538972015  -0.006939067769993 1
force S  -0.001271730623389   0.001162458777352   0.003837026687724 1
force S  -0.000249006852547   0.000306800406642   0.000624251783623 1
force S  -0.000075611982664  -0.000348135082371   0.007122783914173 1
force S  -0.000325904254894   0.000179430627470  -0.000493507071928 1
force S   0.000645024410493  -0.000057363257890   0.004465935758883 1
force S  -0.000334512552043   0.000521700828445  -0.001662276060697 1
force S  -0.000487569454157   0.000603576096001   0.003811160034271 1
force S  -0.000142630724288  -0.000768437820402  -0.000775204778144 1
force S  -0.001374488040036  -0.000300013233709   0.002704836036621 1
force S   0.000446000319915  -0.000577798225316   0.001042860329747 1
force O   0.003037689534757  -0.003574714798534  -0.003958769293028 1
force O   0.008258195922778  -0.004218392046560   0.006670283365681 1
force H  -0.005888854534807   0.007487062080561  -0.000834959036300 1

# Energy components:
   A_diel =       -0.4152942185534761
   Eewald =     7615.7452921300618982
       EH =     8741.1313056079761736
     Eloc =   -17675.1641376559127821
      Enl =     -218.5244386512200663
      Exc =     -481.6348894433321561
 Exc_core =      252.7126116280378767
       KE =      463.2351824669939901
  MuShift =       -0.0271778602850793
-------------------------------------
     Etot =    -1302.9415459962328896
       TS =        0.0743579940171436
-------------------------------------
        F =    -1303.0159039902500808
      muN =      -71.1541242021908005
-------------------------------------
        G =    -1231.8617797880592661

IonicMinimize: Iter:   0  G: -1231.861779788059266  |grad|_K:  6.941e-05  t[s]:   8113.88
IonicMinimize: Converged (|grad|_K<1.000000e-04).

#--- Lowdin population analysis ---
# oxidation-state Ta -0.439 -0.437 -0.430 -0.429 -0.443 -0.503 -0.442 -0.429 -0.438 -0.498 -0.489 -0.438 -0.439 -0.436 -0.441 -0.438
# magnetic-moments Ta -0.000 -0.000 -0.000 -0.000 -0.000 -0.000 -0.000 -0.000 -0.000 -0.000 -0.000 -0.000 -0.000 -0.000 -0.000 -0.000
# oxidation-state S +0.177 +0.176 +0.192 +0.192 +0.176 +0.178 +0.187 +0.189 +0.186 +0.187 +0.208 +0.193 +0.193 +0.197 +0.187 +0.189 +0.177 +0.177 +0.211 +0.194 +0.807 +0.216 +0.197 +0.195 +0.193 +0.191 +0.193 +0.192 +0.196 +0.197 +0.198 +0.195
# magnetic-moments S -0.000 -0.000 -0.000 -0.000 -0.000 -0.000 -0.000 -0.000 -0.000 -0.000 -0.000 -0.000 -0.000 -0.000 -0.000 -0.000 -0.000 -0.000 -0.000 +0.000 -0.000 -0.000 -0.000 +0.000 -0.000 -0.000 -0.000 -0.000 -0.000 +0.000 +0.000 +0.000
# oxidation-state O -0.268 -0.348
# magnetic-moments O -0.000 -0.000
# oxidation-state H +0.472
# magnetic-moments H +0.000


Dumping 'NbTe2.fillings' ... done
Dumping 'NbTe2.wfns' ... done
Dumping 'NbTe2.fluidState' ... done
Dumping 'NbTe2.ionpos' ... done
Dumping 'NbTe2.eigenvals' ... done
End date and time: Thu Sep 24 23:04:22 2020  (Duration: 0-2:15:40.53)
Done!

*************** JDFTx 1.5.0  ***************

Start date and time: Fri Sep 25 09:54:07 2020
Executable jdftx_gpu with command-line: -i Charged.in -o Charged.out
Running on hosts (process indices):  amax (0-6)
Divided in process groups (process indices):  0 (0)  1 (1)  2 (2)  3 (3)  4 (4)  5 (5)  6 (6)
gpuInit: Found compatible cuda device 0 'Tesla K80'
gpuInit: Found compatible cuda device 1 'Tesla K80'
gpuInit: Found compatible cuda device 2 'Tesla K80'
gpuInit: Found compatible cuda device 3 'Tesla K80'
gpuInit: Found compatible cuda device 4 'Tesla K80'
gpuInit: Found compatible cuda device 5 'Tesla K80'
gpuInit: Found compatible cuda device 6 'Tesla K80'
gpuInit: Selected device 0
Resource initialization completed at t[s]:      7.66
[...]
	SubspaceRotationAdjust: set factor to 0.322
ElecMinimize: Iter:  18  G: -1231.829039725714438  |grad|_K:  6.936e-08  alpha:  4.709e-01  linmin:  3.143e-08  t[s]:   2477.19
	FillingsUpdate:  mu: -0.113603415  nElectrons: 413.000000  magneticMoment: [ Abs: 0.07360  Tot: +0.06512 ]
	SubspaceRotationAdjust: set factor to 0.348
ElecMinimize: Iter:  19  G: -1231.829041095488037  |grad|_K:  5.369e-08  alpha:  5.126e-01  linmin:  5.550e-08  t[s]:   2557.86
	FillingsUpdate:  mu: -0.113609330  nElectrons: 413.000000  magneticMoment: [ Abs: 0.05839  Tot: +0.05164 ]
	SubspaceRotationAdjust: set factor to 0.413
ElecMinimize: Iter:  20  G: -1231.829042089393170  |grad|_K:  4.243e-08  alpha:  6.209e-01  linmin:  1.627e-07  t[s]:   2637.85
	FillingsUpdate:  mu: -0.113623510  nElectrons: 413.000000  magneticMoment: [ Abs: 0.04505  Tot: +0.03979 ]
	SubspaceRotationAdjust: set factor to 0.461
ElecMinimize: Iter:  21  G: -1231.829042679863278  |grad|_K:  3.807e-08  alpha:  5.908e-01  linmin:  7.686e-08  t[s]:   2718.72
	FillingsUpdate:  mu: -0.113620463  nElectrons: 413.000000  magneticMoment: [ Abs: 0.03358  Tot: +0.02959 ]
	SubspaceRotationAdjust: set factor to 0.41
ElecMinimize: Iter:  22  G: -1231.829043052521001  |grad|_K:  3.601e-08  alpha:  4.629e-01  linmin:  2.307e-08  t[s]:   2799.70
	FillingsUpdate:  mu: -0.113614175  nElectrons: 413.000000  magneticMoment: [ Abs: 0.02386  Tot: +0.02093 ]
	SubspaceRotationAdjust: set factor to 0.354
ElecMinimize: Iter:  23  G: -1231.829043305869163  |grad|_K:  2.654e-08  alpha:  3.518e-01  linmin:  1.405e-08  t[s]:   2877.23
	FillingsUpdate:  mu: -0.113607409  nElectrons: 413.000000  magneticMoment: [ Abs: 0.01374  Tot: +0.01195 ]
	SubspaceRotationAdjust: set factor to 0.395
ElecMinimize: Iter:  24  G: -1231.829043519718880  |grad|_K:  1.905e-08  alpha:  5.466e-01  linmin: -5.890e-09  t[s]:   2963.32
	FillingsUpdate:  mu: -0.113610525  nElectrons: 413.000000  magneticMoment: [ Abs: 0.00731  Tot: +0.00629 ]
	SubspaceRotationAdjust: set factor to 0.446
ElecMinimize: Iter:  25  G: -1231.829043634511436  |grad|_K:  1.469e-08  alpha:  5.690e-01  linmin: -1.792e-08  t[s]:   3047.20
	FillingsUpdate:  mu: -0.113613180  nElectrons: 413.000000  magneticMoment: [ Abs: 0.00337  Tot: +0.00278 ]
	SubspaceRotationAdjust: set factor to 0.423
ElecMinimize: Iter:  26  G: -1231.829043696566941  |grad|_K:  1.308e-08  alpha:  5.180e-01  linmin:  4.698e-10  t[s]:   3127.72
	FillingsUpdate:  mu: -0.113612099  nElectrons: 413.000000  magneticMoment: [ Abs: 0.00160  Tot: +0.00094 ]
	SubspaceRotationAdjust: set factor to 0.342
ElecMinimize: Iter:  27  G: -1231.829043726723512  |grad|_K:  9.292e-09  alpha:  3.172e-01  linmin:  1.906e-08  t[s]:   3211.98
	FillingsUpdate:  mu: -0.113611250  nElectrons: 413.000000  magneticMoment: [ Abs: 0.00074  Tot: -0.00047 ]
	SubspaceRotationAdjust: set factor to 0.376
ElecMinimize: Iter:  28  G: -1231.829043749030461  |grad|_K:  6.021e-09  alpha:  4.648e-01  linmin:  4.223e-09  t[s]:   3297.51
	FillingsUpdate:  mu: -0.113611786  nElectrons: 413.000000  magneticMoment: [ Abs: 0.00118  Tot: -0.00104 ]
	SubspaceRotationAdjust: set factor to 0.421
ElecMinimize: Iter:  29  G: -1231.829043758481248  |grad|_K:  4.037e-09  alpha:  4.665e-01  linmin: -1.876e-07  t[s]:   3385.23
	FillingsUpdate:  mu: -0.113612479  nElectrons: 413.000000  magneticMoment: [ Abs: 0.00140  Tot: -0.00123 ]
	SubspaceRotationAdjust: set factor to 0.397
ElecMinimize: Iter:  30  G: -1231.829043762822039  |grad|_K:  3.246e-09  alpha:  4.788e-01  linmin:  1.390e-07  t[s]:   3470.29
ElecMinimize: Converged (|Delta G|<1.000000e-08 for 2 iters).
Setting wave functions to eigenvectors of Hamiltonian
Vacuum energy after initial minimize, F = -1231.829043762822039

Shifting auxilliary hamiltonian by -0.057639 to set nElectrons=413.000000
	Linear fluid (dielectric constant: 78.4, screening length: 5.74355 Bohr) occupying 0.750895 of unit cell:	Completed after 24 iterations at t[s]:   3498.70

-------- Electronic minimization -----------
	Linear fluid (dielectric constant: 78.4, screening length: 5.74355 Bohr) occupying 0.750895 of unit cell:	Completed after 0 iterations at t[s]:   3527.14
	FillingsUpdate:  mu: -0.171251800  nElectrons: 413.000000  magneticMoment: [ Abs: 0.00093  Tot: -0.00078 ]
ElecMinimize: Iter:   0  G: -1231.823553082602984  |grad|_K:  1.821e-05  alpha:  1.000e+00
	Linear fluid (dielectric constant: 78.4, screening length: 5.74355 Bohr) occupying 0.804179 of unit cell:	Completed after 31 iterations at t[s]:   3597.84
	Linear fluid (dielectric constant: 78.4, screening length: 5.74355 Bohr) occupying 0.758846 of unit cell:	Completed after 25 iterations at t[s]:   3638.18
	FillingsUpdate:  mu: -0.171251800  nElectrons: 414.497449  magneticMoment: [ Abs: 0.00088  Tot: -0.00073 ]
	SubspaceRotationAdjust: set factor to 0.207
ElecMinimize: Iter:   1  G: -1231.827747457090481  |grad|_K:  1.676e-05  alpha:  1.479e-01  linmin:  2.691e-02  t[s]:   3675.11
	Linear fluid (dielectric constant: 78.4, screening length: 5.74355 Bohr) occupying 0.759968 of unit cell:	Completed after 14 iterations at t[s]:   3707.15
ElecMinimize: 	Predicted alpha/alphaT>3.000000, increasing alphaT to 4.436875e-01.
	Linear fluid (dielectric constant: 78.4, screening length: 5.74355 Bohr) occupying 0.762307 of unit cell:	Completed after 15 iterations at t[s]:   3741.55
	Linear fluid (dielectric constant: 78.4, screening length: 5.74355 Bohr) occupying 0.763473 of unit cell:	Completed after 15 iterations at t[s]:   3773.93
	FillingsUpdate:  mu: -0.171251800  nElectrons: 414.957930  magneticMoment: [ Abs: 0.00074  Tot: -0.00062 ]
	SubspaceRotationAdjust: set factor to 0.42
ElecMinimize: Iter:   2  G: -1231.853064458218114  |grad|_K:  3.612e-06  alpha:  5.882e-01  linmin:  9.484e-05  t[s]:   3805.51
	Linear fluid (dielectric constant: 78.4, screening length: 5.74355 Bohr) occupying 0.761407 of unit cell:	Completed after 18 iterations at t[s]:   3835.17
	Linear fluid (dielectric constant: 78.4, screening length: 5.74355 Bohr) occupying 0.761464 of unit cell:	Completed after 6 iterations at t[s]:   3866.76
	FillingsUpdate:  mu: -0.171251800  nElectrons: 414.826542  magneticMoment: [ Abs: 0.00075  Tot: -0.00058 ]
	SubspaceRotationAdjust: set factor to 0.26
ElecMinimize: Iter:   3  G: -1231.857206485452480  |grad|_K:  3.325e-06  alpha:  5.720e-01  linmin:  8.113e-05  t[s]:   3898.05
	Linear fluid (dielectric constant: 78.4, screening length: 5.74355 Bohr) occupying 0.769735 of unit cell:	Completed after 19 iterations at t[s]:   3925.97
	Linear fluid (dielectric constant: 78.4, screening length: 5.74355 Bohr) occupying 0.763887 of unit cell:	Completed after 17 iterations at t[s]:   3961.56
	FillingsUpdate:  mu: -0.171251800  nElectrons: 415.044278  magneticMoment: [ Abs: 0.00074  Tot: -0.00056 ]
	SubspaceRotationAdjust: set factor to 0.177
ElecMinimize: Iter:   4  G: -1231.858220968475052  |grad|_K:  2.188e-06  alpha:  1.693e-01  linmin:  1.734e-04  t[s]:   3995.94
	Linear fluid (dielectric constant: 78.4, screening length: 5.74355 Bohr) occupying 0.764043 of unit cell:	Completed after 9 iterations at t[s]:   4024.11
ElecMinimize: 	Predicted alpha/alphaT>3.000000, increasing alphaT to 5.080148e-01.
	Linear fluid (dielectric constant: 78.4, screening length: 5.74355 Bohr) occupying 0.764359 of unit cell:	Completed after 13 iterations at t[s]:   4056.85
	Linear fluid (dielectric constant: 78.4, screening length: 5.74355 Bohr) occupying 0.764427 of unit cell:	Completed after 8 iterations at t[s]:   4088.34
	FillingsUpdate:  mu: -0.171251800  nElectrons: 415.134460  magneticMoment: [ Abs: 0.00072  Tot: -0.00048 ]
	SubspaceRotationAdjust: set factor to 0.196
ElecMinimize: Iter:   5  G: -1231.859737809479611  |grad|_K:  1.708e-06  alpha:  5.790e-01  linmin:  8.804e-06  t[s]:   4120.51
	Linear fluid (dielectric constant: 78.4, screening length: 5.74355 Bohr) occupying 0.764120 of unit cell:	Completed after 17 iterations at t[s]:   4151.79
	Linear fluid (dielectric constant: 78.4, screening length: 5.74355 Bohr) occupying 0.764134 of unit cell:	Completed after 3 iterations at t[s]:   4186.48
	FillingsUpdate:  mu: -0.171251800  nElectrons: 415.148327  magneticMoment: [ Abs: 0.00071  Tot: -0.00043 ]
	SubspaceRotationAdjust: set factor to 0.138
ElecMinimize: Iter:   6  G: -1231.860631239590930  |grad|_K:  1.688e-06  alpha:  5.521e-01  linmin:  1.443e-05  t[s]:   4222.64
	Linear fluid (dielectric constant: 78.4, screening length: 5.74355 Bohr) occupying 0.767572 of unit cell:	Completed after 18 iterations at t[s]:   4252.11
	Linear fluid (dielectric constant: 78.4, screening length: 5.74355 Bohr) occupying 0.766265 of unit cell:	Completed after 14 iterations at t[s]:   4288.10
	FillingsUpdate:  mu: -0.171251800  nElectrons: 415.341511  magneticMoment: [ Abs: 0.00068  Tot: -0.00038 ]
	SubspaceRotationAdjust: set factor to 0.124
ElecMinimize: Iter:   7  G: -1231.861169084047560  |grad|_K:  9.498e-07  alpha:  3.420e-01  linmin: -4.427e-06  t[s]:   4323.31
	Linear fluid (dielectric constant: 78.4, screening length: 5.74355 Bohr) occupying 0.766874 of unit cell:	Completed after 11 iterations at t[s]:   4352.48
	Linear fluid (dielectric constant: 78.4, screening length: 5.74355 Bohr) occupying 0.767400 of unit cell:	Completed after 11 iterations at t[s]:   4389.54
	FillingsUpdate:  mu: -0.171251800  nElectrons: 415.443944  magneticMoment: [ Abs: 0.00063  Tot: -0.00033 ]
	SubspaceRotationAdjust: set factor to 0.128
ElecMinimize: Iter:   8  G: -1231.861488757701636  |grad|_K:  7.427e-07  alpha:  6.386e-01  linmin:  2.229e-05  t[s]:   4423.38
	Linear fluid (dielectric constant: 78.4, screening length: 5.74355 Bohr) occupying 0.767092 of unit cell:	Completed after 13 iterations at t[s]:   4452.55
	Linear fluid (dielectric constant: 78.4, screening length: 5.74355 Bohr) occupying 0.767189 of unit cell:	Completed after 10 iterations at t[s]:   4487.29
	FillingsUpdate:  mu: -0.171251800  nElectrons: 415.431781  magneticMoment: [ Abs: 0.00059  Tot: -0.00031 ]
	SubspaceRotationAdjust: set factor to 0.107
ElecMinimize: Iter:   9  G: -1231.861622802061902  |grad|_K:  4.634e-07  alpha:  4.376e-01  linmin:  1.837e-05  t[s]:   4521.98
	Linear fluid (dielectric constant: 78.4, screening length: 5.74355 Bohr) occupying 0.767366 of unit cell:	Completed after 7 iterations at t[s]:   4547.75
	Linear fluid (dielectric constant: 78.4, screening length: 5.74355 Bohr) occupying 0.767437 of unit cell:	Completed after 3 iterations at t[s]:   4581.53
	FillingsUpdate:  mu: -0.171251800  nElectrons: 415.453994  magneticMoment: [ Abs: 0.00052  Tot: -0.00029 ]
	SubspaceRotationAdjust: set factor to 0.133
ElecMinimize: Iter:  10  G: -1231.861696048694512  |grad|_K:  3.365e-07  alpha:  6.148e-01  linmin: -2.502e-05  t[s]:   4616.51
	Linear fluid (dielectric constant: 78.4, screening length: 5.74355 Bohr) occupying 0.767760 of unit cell:	Completed after 11 iterations at t[s]:   4645.67
	Linear fluid (dielectric constant: 78.4, screening length: 5.74355 Bohr) occupying 0.767711 of unit cell:	Completed after 3 iterations at t[s]:   4675.33
	FillingsUpdate:  mu: -0.171251800  nElectrons: 415.477350  magneticMoment: [ Abs: 0.00046  Tot: -0.00027 ]
	SubspaceRotationAdjust: set factor to 0.122
ElecMinimize: Iter:  11  G: -1231.861728876509687  |grad|_K:  2.702e-07  alpha:  5.215e-01  linmin: -1.213e-05  t[s]:   4707.92
	Linear fluid (dielectric constant: 78.4, screening length: 5.74355 Bohr) occupying 0.767580 of unit cell:	Completed after 9 iterations at t[s]:   4736.49
	Linear fluid (dielectric constant: 78.4, screening length: 5.74355 Bohr) occupying 0.767569 of unit cell:	Completed after 0 iterations at t[s]:   4766.29
	FillingsUpdate:  mu: -0.171251800  nElectrons: 415.467886  magneticMoment: [ Abs: 0.00039  Tot: -0.00025 ]
	SubspaceRotationAdjust: set factor to 0.143
ElecMinimize: Iter:  12  G: -1231.861751977984568  |grad|_K:  1.849e-07  alpha:  5.661e-01  linmin: -6.842e-05  t[s]:   4800.48
	Linear fluid (dielectric constant: 78.4, screening length: 5.74355 Bohr) occupying 0.767505 of unit cell:	Completed after 6 iterations at t[s]:   4826.07
	Linear fluid (dielectric constant: 78.4, screening length: 5.74355 Bohr) occupying 0.767512 of unit cell:	Completed after 0 iterations at t[s]:   4856.64
	FillingsUpdate:  mu: -0.171251800  nElectrons: 415.464635  magneticMoment: [ Abs: 0.00035  Tot: -0.00023 ]
	SubspaceRotationAdjust: set factor to 0.156
ElecMinimize: Iter:  13  G: -1231.861761821508935  |grad|_K:  1.502e-07  alpha:  5.034e-01  linmin: -5.737e-06  t[s]:   4889.52
	Linear fluid (dielectric constant: 78.4, screening length: 5.74355 Bohr) occupying 0.767651 of unit cell:	Completed after 7 iterations at t[s]:   4916.32
	Linear fluid (dielectric constant: 78.4, screening length: 5.74355 Bohr) occupying 0.767633 of unit cell:	Completed after 0 iterations at t[s]:   4946.92
	FillingsUpdate:  mu: -0.171251800  nElectrons: 415.475361  magneticMoment: [ Abs: 0.00031  Tot: -0.00022 ]
	SubspaceRotationAdjust: set factor to 0.134
ElecMinimize: Iter:  14  G: -1231.861767315495626  |grad|_K:  1.192e-07  alpha:  4.364e-01  linmin:  3.895e-05  t[s]:   4977.45
	Linear fluid (dielectric constant: 78.4, screening length: 5.74355 Bohr) occupying 0.767633 of unit cell:	Completed after 3 iterations at t[s]:   5002.46
	Linear fluid (dielectric constant: 78.4, screening length: 5.74355 Bohr) occupying 0.767633 of unit cell:	Completed after 0 iterations at t[s]:   5031.55
	FillingsUpdate:  mu: -0.171251800  nElectrons: 415.476489  magneticMoment: [ Abs: 0.00027  Tot: -0.00020 ]
	SubspaceRotationAdjust: set factor to 0.168
ElecMinimize: Iter:  15  G: -1231.861770878761035  |grad|_K:  8.237e-08  alpha:  4.677e-01  linmin: -4.717e-05  t[s]:   5064.09
	Linear fluid (dielectric constant: 78.4, screening length: 5.74355 Bohr) occupying 0.767625 of unit cell:	Completed after 2 iterations at t[s]:   5089.74
	Linear fluid (dielectric constant: 78.4, screening length: 5.74355 Bohr) occupying 0.767623 of unit cell:	Completed after 0 iterations at t[s]:   5119.90
	FillingsUpdate:  mu: -0.171251800  nElectrons: 415.476598  magneticMoment: [ Abs: 0.00024  Tot: -0.00019 ]
	SubspaceRotationAdjust: set factor to 0.186
ElecMinimize: Iter:  16  G: -1231.861773169638582  |grad|_K:  6.448e-08  alpha:  5.694e-01  linmin: -2.150e-05  t[s]:   5152.49
	Linear fluid (dielectric constant: 78.4, screening length: 5.74355 Bohr) occupying 0.767681 of unit cell:	Completed after 2 iterations at t[s]:   5176.07
	Linear fluid (dielectric constant: 78.4, screening length: 5.74355 Bohr) occupying 0.767690 of unit cell:	Completed after 0 iterations at t[s]:   5207.13
	FillingsUpdate:  mu: -0.171251800  nElectrons: 415.483003  magneticMoment: [ Abs: 0.00020  Tot: -0.00017 ]
	SubspaceRotationAdjust: set factor to 0.233
ElecMinimize: Iter:  17  G: -1231.861774764997563  |grad|_K:  5.605e-08  alpha:  6.604e-01  linmin: -8.970e-06  t[s]:   5240.71
	Linear fluid (dielectric constant: 78.4, screening length: 5.74355 Bohr) occupying 0.767787 of unit cell:	Completed after 3 iterations at t[s]:   5266.72
	Linear fluid (dielectric constant: 78.4, screening length: 5.74355 Bohr) occupying 0.767755 of unit cell:	Completed after 0 iterations at t[s]:   5294.43
	FillingsUpdate:  mu: -0.171251800  nElectrons: 415.488863  magneticMoment: [ Abs: 0.00018  Tot: -0.00015 ]
	SubspaceRotationAdjust: set factor to 0.17
ElecMinimize: Iter:  18  G: -1231.861775575192723  |grad|_K:  7.569e-08  alpha:  4.397e-01  linmin:  3.826e-05  t[s]:   5327.39
	Linear fluid (dielectric constant: 78.4, screening length: 5.74355 Bohr) occupying 0.767739 of unit cell:	Completed after 2 iterations at t[s]:   5352.31
	Linear fluid (dielectric constant: 78.4, screening length: 5.74355 Bohr) occupying 0.767748 of unit cell:	Completed after 2 iterations at t[s]:   5381.50
	FillingsUpdate:  mu: -0.171251800  nElectrons: 415.488985  magneticMoment: [ Abs: 0.00016  Tot: -0.00014 ]
	SubspaceRotationAdjust: set factor to 0.191
ElecMinimize: Iter:  19  G: -1231.861775922719971  |grad|_K:  4.314e-08  alpha:  1.802e-01  linmin:  8.990e-06  t[s]:   5416.74
	Linear fluid (dielectric constant: 78.4, screening length: 5.74355 Bohr) occupying 0.767746 of unit cell:	Completed after 0 iterations at t[s]:   5439.23
	Linear fluid (dielectric constant: 78.4, screening length: 5.74355 Bohr) occupying 0.767741 of unit cell:	Completed after 0 iterations at t[s]:   5470.30
	FillingsUpdate:  mu: -0.171251800  nElectrons: 415.489082  magneticMoment: [ Abs: 0.00014  Tot: -0.00012 ]
	SubspaceRotationAdjust: set factor to 0.201
ElecMinimize: Iter:  20  G: -1231.861776394536946  |grad|_K:  2.726e-08  alpha:  4.769e-01  linmin:  1.197e-07  t[s]:   5504.19
	Linear fluid (dielectric constant: 78.4, screening length: 5.74355 Bohr) occupying 0.767733 of unit cell:	Completed after 2 iterations at t[s]:   5528.18
	Linear fluid (dielectric constant: 78.4, screening length: 5.74355 Bohr) occupying 0.767737 of unit cell:	Completed after 0 iterations at t[s]:   5558.43
	FillingsUpdate:  mu: -0.171251800  nElectrons: 415.488931  magneticMoment: [ Abs: 0.00013  Tot: -0.00011 ]
	SubspaceRotationAdjust: set factor to 0.15
ElecMinimize: Iter:  21  G: -1231.861776426212145  |grad|_K:  3.662e-08  alpha:  2.508e-01  linmin: -2.749e-05  t[s]:   5594.23
	Linear fluid (dielectric constant: 78.4, screening length: 5.74355 Bohr) occupying 0.767765 of unit cell:	Completed after 1 iterations at t[s]:   5617.01
	Linear fluid (dielectric constant: 78.4, screening length: 5.74355 Bohr) occupying 0.767757 of unit cell:	Completed after 0 iterations at t[s]:   5646.11
	FillingsUpdate:  mu: -0.171251800  nElectrons: 415.490796  magneticMoment: [ Abs: 0.00012  Tot: -0.00010 ]
	SubspaceRotationAdjust: set factor to 0.162
ElecMinimize: Iter:  22  G: -1231.861776570331131  |grad|_K:  2.726e-08  alpha:  1.836e-01  linmin: -1.169e-05  t[s]:   5678.20
	Linear fluid (dielectric constant: 78.4, screening length: 5.74355 Bohr) occupying 0.767782 of unit cell:	Completed after 2 iterations at t[s]:   5702.79
	Linear fluid (dielectric constant: 78.4, screening length: 5.74355 Bohr) occupying 0.767773 of unit cell:	Completed after 0 iterations at t[s]:   5732.17
	FillingsUpdate:  mu: -0.171251800  nElectrons: 415.492142  magneticMoment: [ Abs: 0.00011  Tot: -0.00010 ]
	SubspaceRotationAdjust: set factor to 0.149
ElecMinimize: Iter:  23  G: -1231.861776610569677  |grad|_K:  1.982e-08  alpha:  1.164e-01  linmin:  8.256e-06  t[s]:   5763.11
	Linear fluid (dielectric constant: 78.4, screening length: 5.74355 Bohr) occupying 0.767780 of unit cell:	Completed after 0 iterations at t[s]:   5787.49
ElecMinimize: 	Predicted alpha/alphaT>3.000000, increasing alphaT to 3.490734e-01.
	Linear fluid (dielectric constant: 78.4, screening length: 5.74355 Bohr) occupying 0.767795 of unit cell:	Completed after 0 iterations at t[s]:   5817.79
	Linear fluid (dielectric constant: 78.4, screening length: 5.74355 Bohr) occupying 0.767796 of unit cell:	Completed after 0 iterations at t[s]:   5845.43
	FillingsUpdate:  mu: -0.171251800  nElectrons: 415.494154  magneticMoment: [ Abs: 0.00010  Tot: -0.00009 ]
	SubspaceRotationAdjust: set factor to 0.156
ElecMinimize: Iter:  24  G: -1231.861776685728501  |grad|_K:  1.238e-08  alpha:  3.720e-01  linmin:  4.936e-08  t[s]:   5878.43
	Linear fluid (dielectric constant: 78.4, screening length: 5.74355 Bohr) occupying 0.767809 of unit cell:	Completed after 3 iterations at t[s]:   5904.66
	Linear fluid (dielectric constant: 78.4, screening length: 5.74355 Bohr) occupying 0.767798 of unit cell:	Completed after 0 iterations at t[s]:   5933.08
ElecMinimize: 	Step increased G by 5.958213e-08, reducing alpha to 6.456676e-03.
	Linear fluid (dielectric constant: 78.4, screening length: 5.74355 Bohr) occupying 0.767796 of unit cell:	Completed after 0 iterations at t[s]:   5984.25
ElecMinimize: 	Step increased G by 5.150059e-08, reducing alpha to 6.456676e-04.
