
*************** JDFTx 1.5.0  ***************

Start date and time: Mon Jul  6 05:07:25 2020
Executable jdftx_gpu with command-line: -i Neutral.in -o Neutral.out
Running on hosts (process indices):  amax (0)
Divided in process groups (process indices):  0 (0)
gpuInit: Found compatible cuda device 0 'Tesla K80'
gpuInit: Selected device 0
Resource initialization completed at t[s]:     12.18
Run totals: 1 processes, 24 threads, 1 GPUs


Input parsed successfully to the following command list (including defaults):

basis kpoint-dependent
cache-projectors no
coords-type Lattice
core-overlap-check none
coulomb-interaction Slab 001
coulomb-truncation-embed 0 0 0.5
davidson-band-ratio 1.1
dump End State
dump-name NbTe2.$VAR
elec-cutoff 20 100
elec-eigen-algo Davidson
elec-ex-corr gga-PBE
elec-smearing Gauss 0.0073499
electronic-minimize  \
	dirUpdateScheme      FletcherReeves \
	linminMethod         DirUpdateRecommended \
	nIterations          100 \
	history              15 \
	knormThreshold       0 \
	energyDiffThreshold  1e-08 \
	nEnergyDiff          2 \
	alphaTstart          1 \
	alphaTmin            1e-10 \
	updateTestStepSize   yes \
	alphaTreduceFactor   0.1 \
	alphaTincreaseFactor 3 \
	nAlphaAdjustMax      3 \
	wolfeEnergy          0.0001 \
	wolfeGradient        0.9 \
	fdTest               no
electronic-scf  \
	nIterations	500 \
	energyDiffThreshold	1e-08 \
	residualThreshold	1e-07 \
	mixFraction	0.5 \
	qMetric	0.8 \
	history	10 \
	nEigSteps	2 \
	eigDiffThreshold	1e-08 \
	mixedVariable	Density \
	qKerker	0.8 \
	qKappa	-1 \
	verbose	no \
	mixFractionMag	1.5
exchange-regularization WignerSeitzTruncated
fluid LinearPCM 298.000000 1.013250
fluid-anion F- 1 MeanFieldLJ \
	epsBulk 1 \
	pMol 0 \
	epsInf 1 \
	Pvap 0 \
	sigmaBulk 0 \
	Rvdw 2.24877 \
	Res 0 \
	tauNuc 343133
fluid-cation Na+ 1 MeanFieldLJ \
	epsBulk 1 \
	pMol 0 \
	epsInf 1 \
	Pvap 0 \
	sigmaBulk 0 \
	Rvdw 2.19208 \
	Res 0 \
	tauNuc 343133
fluid-ex-corr lda-TF lda-PZ
fluid-gummel-loop 10 1.000000e-05
fluid-minimize  \
	dirUpdateScheme      PolakRibiere \
	linminMethod         DirUpdateRecommended \
	nIterations          400 \
	history              15 \
	knormThreshold       1e-11 \
	energyDiffThreshold  0 \
	nEnergyDiff          2 \
	alphaTstart          1 \
	alphaTmin            1e-10 \
	updateTestStepSize   yes \
	alphaTreduceFactor   0.1 \
	alphaTincreaseFactor 3 \
	nAlphaAdjustMax      6 \
	wolfeEnergy          0.0001 \
	wolfeGradient        0.9 \
	fdTest               no
fluid-solvent H2O 55.338 ScalarEOS \
	epsBulk 78.4 \
	pMol 0.92466 \
	epsInf 1.77 \
	Pvap 1.06736e-10 \
	sigmaBulk 4.62e-05 \
	Rvdw 2.61727 \
	Res 1.42 \
	tauNuc 343133 \
	poleEl 15 7 1
forces-output-coords Positions
initial-state NbTe2.$VAR
ion Bi   0.375000001149388   0.659277061583945   0.657210505006790 0
ion Bi   0.875000001149388   0.659277061583945   0.657210505006790 0
ion Bi   0.124999999448171   0.340717944400414   0.342789605980253 0
ion Bi   0.624999999448171   0.340717944400414   0.342789605980253 0
ion Bi   0.374999999094918   0.301072483986115   0.411847553708424 0
ion Bi   0.874999999094918   0.301072483986115   0.411847553708424 0
ion Bi   0.125000000557897   0.698931179730543   0.588152858864090 0
ion Bi   0.625000000557897   0.698931179730543   0.588152858864090 0
ion Bi   0.375000001798611   0.077976990267745   0.382961306575626 0
ion Bi   0.875000001798611   0.077976990267745   0.382961306575626 0
ion Bi   0.124999999138900   0.922024645065113   0.617040425250383 0
ion Bi   0.624999999138900   0.922024645065113   0.617040425250383 0
ion Bi   0.374999999395371   0.974419433079402   0.550905783580324 0
ion Bi   0.874999999395371   0.974419433079402   0.550905783580324 0
ion Bi   0.125000000367869   0.025579291374776   0.449095635323685 0
ion Bi   0.625000000367869   0.025579291374776   0.449095635323685 0
ion Bi   0.374999999360348   0.199961567387887   0.578021021590321 0
ion Bi   0.874999999360348   0.199961567387887   0.578021021590321 0
ion Bi   0.124999999299455   0.800037473233163   0.421977876572631 0
ion Bi   0.624999999299455   0.800037473233163   0.421977876572631 0
ion Bi   0.374999999905441   0.754275232692878   0.489961033108346 0
ion Bi   0.874999999905441   0.754275232692878   0.489961033108346 0
ion Bi   0.124999999978591   0.245729472025270   0.510033702369402 0
ion Bi   0.624999999978591   0.245729472025270   0.510033702369402 0
ion Bi   0.375000000470059   0.525786075454492   0.466774305817052 0
ion Bi   0.875000000470060   0.525786075454492   0.466774305817052 0
ion Bi   0.124999999857550   0.474209224084776   0.533224110290303 0
ion Bi   0.624999999857550   0.474209224084776   0.533224110290303 0
ion Bi   0.124999999757513   0.563712398985152   0.367035125103621 0
ion Bi   0.624999999757513   0.563712398985152   0.367035125103621 0
ion Bi   0.375000000009486   0.436281012120547   0.632965908580814 0
ion Bi   0.875000000009486   0.436281012120547   0.632965908580814 0
ion Bi   0.125000000712987   0.385979112747197   0.701118789460922 0
ion Bi   0.625000000712987   0.385979112747197   0.701118789460922 0
ion Bi   0.374999999824112   0.614016934146848   0.298882386607767 0
ion Bi   0.874999999824112   0.614016934146848   0.298882386607767 0
ion I   0.124999999921250   0.593909268057357   0.745449596238339 0
ion I   0.624999999921251   0.593909268057357   0.745449596238339 0
ion I   0.374999999928690   0.406102267537234   0.254548721402561 0
ion I   0.874999999928690   0.406102267537234   0.254548721402561 0
ion I   0.125000000168782   0.158071797795715   0.673016264063717 0
ion I   0.625000000168782   0.158071797795715   0.673016264063717 0
ion I   0.374999999854623   0.841929134243401   0.326987484504620 0
ion I   0.874999999854623   0.841929134243401   0.326987484504620 0
ion-species GBRV/$ID_pbe.uspp
ion-width Ecut
ionic-minimize  \
	dirUpdateScheme      L-BFGS \
	linminMethod         DirUpdateRecommended \
	nIterations          0 \
	history              15 \
	knormThreshold       0.0001 \
	energyDiffThreshold  1e-06 \
	nEnergyDiff          2 \
	alphaTstart          1 \
	alphaTmin            1e-10 \
	updateTestStepSize   yes \
	alphaTreduceFactor   0.1 \
	alphaTincreaseFactor 3 \
	nAlphaAdjustMax      3 \
	wolfeEnergy          0.0001 \
	wolfeGradient        0.9 \
	fdTest               no
kpoint   0.000000000000   0.000000000000   0.000000000000  1.00000000000000
kpoint-folding 4 3 1 
latt-move-scale 1 1 1
latt-scale 1 1 1 
lattice Triclinic 16.7699 25.1035 56.5964 90 90 90
lattice-minimize  \
	dirUpdateScheme      L-BFGS \
	linminMethod         DirUpdateRecommended \
	nIterations          0 \
	history              15 \
	knormThreshold       0 \
	energyDiffThreshold  1e-06 \
	nEnergyDiff          2 \
	alphaTstart          1 \
	alphaTmin            1e-10 \
	updateTestStepSize   yes \
	alphaTreduceFactor   0.1 \
	alphaTincreaseFactor 3 \
	nAlphaAdjustMax      3 \
	wolfeEnergy          0.0001 \
	wolfeGradient        0.9 \
	fdTest               no
lcao-params -1 1e-06 0.0073499
pcm-variant CANDLE
spintype no-spin
subspace-rotation-factor 1 yes
symmetries automatic
symmetry-threshold 0.0001



---------- Setting up symmetries ----------

Found 8 point-group symmetries of the bravais lattice
Found 4 space-group symmetries with basis
Applied RMS atom displacement 1.07517e-08 bohrs to make symmetries exact.

---------- Initializing the Grid ----------
R = 
[    16.7699          0          0  ]
[          0    25.1035          0  ]
[          0          0    56.5964  ]
unit cell volume = 23826.2
G =
[    0.37467          0          0  ]
[          0   0.250291          0  ]
[          0          0   0.111017  ]
Minimum fftbox size, Smin = [  76  116  256  ]
Chosen fftbox size, S = [  80  120  256  ]

---------- Initializing tighter grid for wavefunction operations ----------
R = 
[    16.7699          0          0  ]
[          0    25.1035          0  ]
[          0          0    56.5964  ]
unit cell volume = 23826.2
G =
[    0.37467          0          0  ]
[          0   0.250291          0  ]
[          0          0   0.111017  ]
Minimum fftbox size, Smin = [  68  104  228  ]
Chosen fftbox size, S = [  70  108  240  ]

---------- Exchange Correlation functional ----------
Initalized PBE GGA exchange.
Initalized PBE GGA correlation.

---------- Setting up pseudopotentials ----------
Width of ionic core gaussian charges (only for fluid interactions / plotting) set to 0.397384

Reading pseudopotential file '/home/guoxy/vasp/jdftx-1.5.0/build/pseudopotentials/GBRV/bi_pbe.uspp':
  Title: Bi.  Created by USPP 7.3.6 on 14-9-2013
  Reference state energy: -92.204004.  15 valence electrons in orbitals:
    |520>  occupation: 10  eigenvalue: -1.293263
    |600>  occupation: 2  eigenvalue: -0.812524
    |610>  occupation: 2  eigenvalue: -0.420386
  lMax: 2  lLocal: 3  QijEcut: 5
  6 projectors sampled on a log grid with 747 points:
    l: 0  eig: -0.812524  rCut: 2.5
    l: 0  eig: 0.500000  rCut: 2.5
    l: 1  eig: -0.420386  rCut: 2.5
    l: 1  eig: 1.000000  rCut: 2.5
    l: 2  eig: -1.293263  rCut: 2.3
    l: 2  eig: -0.500000  rCut: 2.3
  Partial core density with radius 1
  Transforming core density to a uniform radial grid of dG=0.02 with 1282 points.
  Transforming local potential to a uniform radial grid of dG=0.02 with 1282 points.
  Transforming nonlocal projectors to a uniform radial grid of dG=0.02 with 432 points.
  Transforming density augmentations to a uniform radial grid of dG=0.02 with 1282 points.
  Transforming atomic orbitals to a uniform radial grid of dG=0.02 with 432 points.
  Core radius for overlap checks: 2.50 bohrs.

Reading pseudopotential file '/home/guoxy/vasp/jdftx-1.5.0/build/pseudopotentials/GBRV/i_pbe.uspp':
  Title: I.  Created by USPP 7.3.6 on 14-9-2013
  Reference state energy: -32.770235.  7 valence electrons in orbitals:
    |500>  occupation: 2  eigenvalue: -0.639712
    |510>  occupation: 5  eigenvalue: -0.260406
  lMax: 2  lLocal: 3  QijEcut: 5
  6 projectors sampled on a log grid with 725 points:
    l: 0  eig: -0.639710  rCut: 1.9
    l: 0  eig: 0.000000  rCut: 1.9
    l: 1  eig: -0.260404  rCut: 2
    l: 1  eig: 0.000000  rCut: 2
    l: 2  eig: -0.500000  rCut: 2.45
    l: 2  eig: 0.500000  rCut: 2.45
  Partial core density with radius 1.3
  Transforming core density to a uniform radial grid of dG=0.02 with 1282 points.
  Transforming local potential to a uniform radial grid of dG=0.02 with 1282 points.
  Transforming nonlocal projectors to a uniform radial grid of dG=0.02 with 432 points.
  Transforming density augmentations to a uniform radial grid of dG=0.02 with 1282 points.
  Transforming atomic orbitals to a uniform radial grid of dG=0.02 with 432 points.
  Core radius for overlap checks: 2.45 bohrs.

Initialized 2 species with 44 total atoms.

Folded 1 k-points by 4x3x1 to 12 k-points.

---------- Setting up k-points, bands, fillings ----------
Adding inversion symmetry to k-mesh for non-inversion-symmetric unit cell.
Reduced to 6 k-points under symmetry. 
Computing the number of bands and number of electrons
Calculating initial fillings.
nElectrons: 596.000000   nBands: 356   nStates: 6

----- Setting up reduced wavefunction bases (one per k-point) -----
average nbasis = 101802.417 , ideal nbasis = 101787.256

---------- Setting up coulomb interaction ----------
Fluid mode embedding: using embedded box, but periodic Coulomb kernel.
(Fluid response is responsible for (approximate) separation between periodic images.)
Setting up double-sized grid for truncated Coulomb potentials:
R = 
[    16.7699          0          0  ]
[          0    25.1035          0  ]
[          0          0    113.193  ]
unit cell volume = 47652.4
G =
[    0.37467          0          0  ]
[          0   0.250291          0  ]
[          0          0  0.0555087  ]
Chosen fftbox size, S = [  80  120  512  ]
Integer grid location selected as the embedding center:
   Grid: [  0  0  128  ]
   Lattice: [  0  0  0.5  ]
   Cartesian: [  0  0  28.2982  ]
Constructing Wigner-Seitz cell: 6 faces (6 quadrilaterals, 0 hexagons)
Range-separation parameter for embedded mesh potentials due to point charges: 0.593177 bohrs.

Initializing van der Waals corrections
	NOTE: vdW corrections apply only for interactions with fluid.
	Bi:  C6:  893.28 Eh-a0^6  R0: 3.555 a0 (WARNING: beyond Grimme's data set)
	 I:  C6:  546.38 Eh-a0^6  R0: 3.575 a0

---------- Setting up ewald sum ----------
Optimum gaussian width for ewald sums = 7.697731 bohr.
Real space sum over 585 unit cells with max indices [  6  4  2  ]
Reciprocal space sum over 7007 terms with max indices [  5  6  24  ]

---------- Allocating electronic variables ----------
Initializing wave functions:  linear combination of atomic orbitals
Bi pseudo-atom occupations:   s ( 2 )  p ( 3 )  d ( 10 )
I pseudo-atom occupations:   s ( 2 )  p ( 5 )
	FillingsUpdate:  mu: -0.175905665  nElectrons: 596.000000
LCAOMinimize: Iter:   0  F: -2679.0821827519275757  |grad|_K:  2.511e-03  alpha:  1.000e+00
	FillingsUpdate:  mu: -0.152949755  nElectrons: 596.000000
LCAOMinimize: Iter:   1  F: -2679.1856029100881642  |grad|_K:  2.078e-03  alpha:  2.341e-02  linmin: -2.329e-01  cgtest:  9.839e-01  t[s]:    151.01
LCAOMinimize: Encountered beta<0, resetting CG.
LCAOMinimize: 	Predicted alpha/alphaT>3.000000, increasing alphaT to 7.022336e-02.
	FillingsUpdate:  mu: -0.072364936  nElectrons: 596.000000
LCAOMinimize: Iter:   2  F: -2679.4341601189757966  |grad|_K:  1.228e-03  alpha:  1.563e-01  linmin:  3.059e-02  cgtest: -2.978e-01  t[s]:    217.04
	FillingsUpdate:  mu: +0.015682824  nElectrons: 596.000000
LCAOMinimize: Iter:   3  F: -2679.4972896290055360  |grad|_K:  1.961e-03  alpha:  2.198e-01  linmin:  1.185e-01  cgtest:  5.668e-01  t[s]:    268.43
	FillingsUpdate:  mu: +0.017200212  nElectrons: 596.000000
LCAOMinimize: Iter:   4  F: -2679.4990773425070074  |grad|_K:  1.974e-03  alpha:  5.358e-03  linmin: -8.681e-03  cgtest:  9.911e-01  t[s]:    319.94
LCAOMinimize: 	Predicted alpha/alphaT>3.000000, increasing alphaT to 1.607396e-02.
LCAOMinimize: 	Predicted alpha/alphaT>3.000000, increasing alphaT to 4.822187e-02.
	FillingsUpdate:  mu: -0.071783391  nElectrons: 596.000000
LCAOMinimize: Iter:   5  F: -2679.6226611039478485  |grad|_K:  2.262e-04  alpha:  8.004e-02  linmin: -2.032e-01  cgtest:  6.937e-01  t[s]:    403.08
LCAOMinimize: Encountered beta<0, resetting CG.
	FillingsUpdate:  mu: -0.080118414  nElectrons: 596.000000
LCAOMinimize: Iter:   6  F: -2679.6255761653301306  |grad|_K:  1.151e-04  alpha:  1.489e-01  linmin: -8.561e-04  cgtest: -1.768e-03  t[s]:    454.03
	FillingsUpdate:  mu: -0.075553761  nElectrons: 596.000000
LCAOMinimize: Iter:   7  F: -2679.6264817922942711  |grad|_K:  4.932e-05  alpha:  1.790e-01  linmin:  4.894e-03  cgtest: -3.490e-02  t[s]:    505.57
	FillingsUpdate:  mu: -0.076155357  nElectrons: 596.000000
LCAOMinimize: Iter:   8  F: -2679.6266569970230194  |grad|_K:  3.189e-05  alpha:  1.910e-01  linmin:  9.958e-04  cgtest:  3.443e-02  t[s]:    557.69
	FillingsUpdate:  mu: -0.076301753  nElectrons: 596.000000
LCAOMinimize: Iter:   9  F: -2679.6266850094648362  |grad|_K:  2.426e-05  alpha:  7.229e-02  linmin: -8.806e-05  cgtest:  6.750e-03  t[s]:    608.50
LCAOMinimize: 	Predicted alpha/alphaT>3.000000, increasing alphaT to 2.168741e-01.
	FillingsUpdate:  mu: -0.076314457  nElectrons: 596.000000
LCAOMinimize: Iter:  10  F: -2679.6267371944422848  |grad|_K:  1.092e-05  alpha:  2.318e-01  linmin:  3.322e-05  cgtest: -2.017e-02  t[s]:    674.56
	FillingsUpdate:  mu: -0.075962265  nElectrons: 596.000000
LCAOMinimize: Iter:  11  F: -2679.6267488233124823  |grad|_K:  7.932e-06  alpha:  2.549e-01  linmin:  3.121e-06  cgtest:  9.946e-04  t[s]:    726.31
	FillingsUpdate:  mu: -0.076054260  nElectrons: 596.000000
LCAOMinimize: Iter:  12  F: -2679.6267505488440293  |grad|_K:  4.950e-06  alpha:  7.184e-02  linmin:  2.039e-04  cgtest: -2.525e-03  t[s]:    778.12
	FillingsUpdate:  mu: -0.076207157  nElectrons: 596.000000
LCAOMinimize: Iter:  13  F: -2679.6267515341210128  |grad|_K:  2.506e-06  alpha:  1.053e-01  linmin: -1.270e-04  cgtest:  4.053e-03  t[s]:    830.85
	FillingsUpdate:  mu: -0.076155950  nElectrons: 596.000000
LCAOMinimize: Iter:  14  F: -2679.6267519775287838  |grad|_K:  1.249e-06  alpha:  1.846e-01  linmin:  3.452e-05  cgtest: -3.509e-03  t[s]:    882.76
LCAOMinimize: Converged (|Delta F|<1.000000e-06 for 2 iters).
----- createFluidSolver() ----- (Fluid-side solver setup)
   Initializing fluid molecule 'H2O'
     Initializing site 'O'
       Electron density: proportional to exp(-r/0.36935)*erfc((r-0.51523)/0.36823) with norm 6.826
       Charge density: gaussian nuclear width 0.478731 with net site charge 0.826
       Polarizability: cuspless exponential with width 0.32 and norm 3.73
       Hard sphere radius: 2.57003 bohrs
       Positions in reference frame:
         [ +0.000000 +0.000000 +0.000000 ]
     Initializing site 'H'
       Electron density: proportional to exp(-r/0.34641)*erfc((r-0)/0.390882) with norm 0.587
       Charge density: gaussian nuclear width 0.377945 with net site charge -0.413
       Polarizability: cuspless exponential with width 0.39 and norm 3.3
       Positions in reference frame:
         [ +0.000000 -1.441945 +1.122523 ]
         [ +0.000000 +1.441945 +1.122523 ]
     Net charge: 0   dipole magnitude: 0.927204
     Initializing spherical shell mfKernel with radius 2.61727 Bohr
     deltaS corrections:
       site 'O': -7.54299
       site 'H': -6.83917
   Initializing fluid molecule 'Na+'
     Initializing site 'Na'
       Electron density: proportional to exp(-r/0.19682)*erfc((r-0.71491)/0.41314) with norm 8.1383
       Charge density: gaussian nuclear width 0.365347 with net site charge -1
       Hard sphere radius: 1.86327 bohrs
       Positions in reference frame:
         [ +0.000000 +0.000000 +0.000000 ]
     Net charge: -1   dipole magnitude: 0
     Initializing gaussian mfKernel with width: 1.55004 Bohr
     deltaS corrections:
       site 'Na': -22.3555
   Initializing fluid molecule 'F-'
     Initializing site 'F'
       Electron density: proportional to exp(-r/0.38886)*erfc((r-0)/0.438782) with norm 8
       Charge density: gaussian nuclear width 0.374796 with net site charge 1
       Hard sphere radius: 2.39995 bohrs
       Positions in reference frame:
         [ +0.000000 +0.000000 +0.000000 ]
     Net charge: 1   dipole magnitude: 0
     Initializing gaussian mfKernel with width: 1.59012 Bohr
     deltaS corrections:
       site 'F': -9.04335

Correction to mu due to finite nuclear width = -0.0124097
   Cavity determined by nc: 0.00142 and sigma: 0.707107
   Nonlocal vdW cavity from gaussian model electron density with norm = 8 and sigma = 0.993594 bohr
   Charge asymmetry in cavity with sensitivity pCavity = 36.5 e-bohr/Eh
   Electrostatic cavity expanded by eta = 1.46 bohrs
   Weighted density cavitation model constrained by Nbulk: 0.0049383 bohr^-3, Pvap: 3.14029 kPa, Rvdw: 2.61727 bohr and sigmaBulk: 4.62e-05 Eh/bohr^2 at T: 298 K.
   Weighted density dispersion model using vdW pair potentials with single solvent site with sqrtC6eff: 0.77 SI.


---- Citations for features of the code used in this run ----

   Software package:
      R. Sundararaman, K. Letchworth-Weaver, K.A. Schwarz, D. Gunceler, Y. Ozhabes and T.A. Arias, 'JDFTx: software for joint density-functional theory', SoftwareX 6, 278 (2017)

   gga-PBE exchange-correlation functional:
      J.P. Perdew, K. Burke and M. Ernzerhof, Phys. Rev. Lett. 77, 3865 (1996)

   Pseudopotentials:
      KF Garrity, JW Bennett, KM Rabe and D Vanderbilt, Comput. Mater. Sci. 81, 446 (2014)

   Truncated Coulomb potentials:
      R. Sundararaman and T.A. Arias, Phys. Rev. B 87, 165122 (2013)

   Van der Waals correction pair-potentials:
      S. Grimme, J. Comput. Chem. 27, 1787 (2006)

   Charge-asymmetric nonlocally-determined local-electric (CANDLE) solvation model:
      R. Sundararaman and W.A. Goddard III, J. Chem. Phys. 142, 064107 (2015)

This list may not be complete. Please suggest additional citations or
report any other bugs at https://github.com/shankar1729/jdftx/issues

Initialization completed successfully at t[s]:    895.96

Fluid solver invoked on fresh (partially random / LCAO) wavefunctions
Running a vacuum solve first:

-------- Initial electronic minimization -----------
Will mix electronic density at each iteration.
	FillingsUpdate:  mu: -0.076155950  nElectrons: 596.000000
	FillingsUpdate:  mu: -0.083284511  nElectrons: 596.000000
SCF: Cycle:  0   F: -2680.194381794617584   dF: -5.676e-01   |Residual|: 3.318e-01   |deigs|: 9.659e-03  t[s]:   1079.83
	FillingsUpdate:  mu: -0.085318865  nElectrons: 596.000000
SCF: Cycle:  1   F: -2680.417237278280027   dF: -2.229e-01   |Residual|: 1.484e-01   |deigs|: 1.238e-02  t[s]:   1231.83
	FillingsUpdate:  mu: -0.086336963  nElectrons: 596.000000
SCF: Cycle:  2   F: -2680.472705606210639   dF: -5.547e-02   |Residual|: 5.208e-02   |deigs|: 8.465e-03  t[s]:   1383.15
	FillingsUpdate:  mu: -0.085404904  nElectrons: 596.000000
SCF: Cycle:  3   F: -2680.475276740142363   dF: -2.571e-03   |Residual|: 1.427e-02   |deigs|: 9.547e-04  t[s]:   1533.85
	FillingsUpdate:  mu: -0.084532442  nElectrons: 596.000000
SCF: Cycle:  4   F: -2680.476725753226219   dF: -1.449e-03   |Residual|: 6.689e-03   |deigs|: 6.120e-04  t[s]:   1686.00
	FillingsUpdate:  mu: -0.083197822  nElectrons: 596.000000
SCF: Cycle:  5   F: -2680.477183529963895   dF: -4.578e-04   |Residual|: 2.921e-03   |deigs|: 1.352e-03  t[s]:   1838.44
	FillingsUpdate:  mu: -0.082224148  nElectrons: 596.000000
SCF: Cycle:  6   F: -2680.477393921334169   dF: -2.104e-04   |Residual|: 2.270e-03   |deigs|: 1.031e-03  t[s]:   1990.79
	FillingsUpdate:  mu: -0.080772297  nElectrons: 596.000000
SCF: Cycle:  7   F: -2680.477530465812379   dF: -1.365e-04   |Residual|: 1.567e-03   |deigs|: 1.462e-03  t[s]:   2141.76
	FillingsUpdate:  mu: -0.079668822  nElectrons: 596.000000
SCF: Cycle:  8   F: -2680.477563611103960   dF: -3.315e-05   |Residual|: 9.402e-04   |deigs|: 1.113e-03  t[s]:   2292.13
	FillingsUpdate:  mu: -0.078848329  nElectrons: 596.000000
SCF: Cycle:  9   F: -2680.477576194799894   dF: -1.258e-05   |Residual|: 7.522e-04   |deigs|: 8.269e-04  t[s]:   2441.97
	FillingsUpdate:  mu: -0.077878804  nElectrons: 596.000000
SCF: Cycle: 10   F: -2680.477579415608943   dF: -3.221e-06   |Residual|: 5.949e-04   |deigs|: 9.854e-04  t[s]:   2591.90
	FillingsUpdate:  mu: -0.077379332  nElectrons: 596.000000
SCF: Cycle: 11   F: -2680.477583228973799   dF: -3.813e-06   |Residual|: 4.171e-04   |deigs|: 5.041e-04  t[s]:   2744.96
	FillingsUpdate:  mu: -0.076794753  nElectrons: 596.000000
SCF: Cycle: 12   F: -2680.477586682474339   dF: -3.454e-06   |Residual|: 3.179e-04   |deigs|: 5.873e-04  t[s]:   2897.44
	FillingsUpdate:  mu: -0.076341200  nElectrons: 596.000000
SCF: Cycle: 13   F: -2680.477588526578529   dF: -1.844e-06   |Residual|: 2.308e-04   |deigs|: 4.506e-04  t[s]:   3046.77
	FillingsUpdate:  mu: -0.076111281  nElectrons: 596.000000
SCF: Cycle: 14   F: -2680.477589027843351   dF: -5.013e-07   |Residual|: 1.522e-04   |deigs|: 2.297e-04  t[s]:   3196.94
	FillingsUpdate:  mu: -0.075949787  nElectrons: 596.000000
SCF: Cycle: 15   F: -2680.477589214403906   dF: -1.866e-07   |Residual|: 8.701e-05   |deigs|: 1.631e-04  t[s]:   3348.99
	FillingsUpdate:  mu: -0.075895097  nElectrons: 596.000000
SCF: Cycle: 16   F: -2680.477589296177939   dF: -8.177e-08   |Residual|: 5.443e-05   |deigs|: 5.525e-05  t[s]:   3499.42
	FillingsUpdate:  mu: -0.075862388  nElectrons: 596.000000
SCF: Cycle: 17   F: -2680.477589347844514   dF: -5.167e-08   |Residual|: 2.651e-05   |deigs|: 3.240e-05  t[s]:   3647.66
	FillingsUpdate:  mu: -0.075853146  nElectrons: 596.000000
SCF: Cycle: 18   F: -2680.477589372349030   dF: -2.450e-08   |Residual|: 1.668e-05   |deigs|: 9.208e-06  t[s]:   3797.10
	FillingsUpdate:  mu: -0.075852096  nElectrons: 596.000000
SCF: Cycle: 19   F: -2680.477589386189720   dF: -1.384e-08   |Residual|: 8.023e-06   |deigs|: 1.414e-06  t[s]:   3950.80
	FillingsUpdate:  mu: -0.075850561  nElectrons: 596.000000
SCF: Cycle: 20   F: -2680.477589394118240   dF: -7.929e-09   |Residual|: 5.520e-06   |deigs|: 1.674e-06  t[s]:   4087.72
	FillingsUpdate:  mu: -0.075850159  nElectrons: 596.000000
SCF: Cycle: 21   F: -2680.477589399097724   dF: -4.979e-09   |Residual|: 3.650e-06   |deigs|: 1.081e-06  t[s]:   4211.90
SCF: Converged (|Delta E|<1.000000e-08 for 2 iters).

Vacuum energy after initial minimize, F = -2680.477589399097724

	FillingsUpdate:  mu: -0.075850159  nElectrons: 596.000000
	Linear fluid (dielectric constant: 78.4, screening length: 5.74355 Bohr) occupying 0.705686 of unit cell:	Completed after 27 iterations at t[s]:   4230.01

-------- Electronic minimization -----------
Will mix electronic density at each iteration.
	FillingsUpdate:  mu: -0.075850159  nElectrons: 596.000000
	Linear fluid (dielectric constant: 78.4, screening length: 5.74355 Bohr) occupying 0.705686 of unit cell:	Completed after 0 iterations at t[s]:   4246.09
	FillingsUpdate:  mu: -0.170758954  nElectrons: 596.000000
	Linear fluid (dielectric constant: 78.4, screening length: 5.74355 Bohr) occupying 0.706200 of unit cell:	Completed after 21 iterations at t[s]:   4420.47
SCF: Cycle:  0   F: -2680.475550460689647   dF: +6.067e-04   |Residual|: 2.290e-02   |deigs|: 1.348e-04  t[s]:   4423.15
	Linear fluid (dielectric constant: 78.4, screening length: 5.74355 Bohr) occupying 0.705992 of unit cell:	Completed after 21 iterations at t[s]:   4426.69
	FillingsUpdate:  mu: -0.170979872  nElectrons: 596.000000
	Linear fluid (dielectric constant: 78.4, screening length: 5.74355 Bohr) occupying 0.706162 of unit cell:	Completed after 20 iterations at t[s]:   4577.86
SCF: Cycle:  1   F: -2680.478272610471777   dF: -2.722e-03   |Residual|: 1.017e-02   |deigs|: 5.626e-04  t[s]:   4579.87
	Linear fluid (dielectric constant: 78.4, screening length: 5.74355 Bohr) occupying 0.706326 of unit cell:	Completed after 19 iterations at t[s]:   4582.77
	FillingsUpdate:  mu: -0.171128712  nElectrons: 596.000000
	Linear fluid (dielectric constant: 78.4, screening length: 5.74355 Bohr) occupying 0.706178 of unit cell:	Completed after 17 iterations at t[s]:   4735.70
SCF: Cycle:  2   F: -2680.478933535684519   dF: -6.609e-04   |Residual|: 5.482e-03   |deigs|: 2.898e-04  t[s]:   4737.55
	Linear fluid (dielectric constant: 78.4, screening length: 5.74355 Bohr) occupying 0.706566 of unit cell:	Completed after 16 iterations at t[s]:   4740.14
	FillingsUpdate:  mu: -0.171107416  nElectrons: 596.000000
	Linear fluid (dielectric constant: 78.4, screening length: 5.74355 Bohr) occupying 0.706222 of unit cell:	Completed after 14 iterations at t[s]:   4893.99
SCF: Cycle:  3   F: -2680.479042642203694   dF: -1.091e-04   |Residual|: 2.931e-03   |deigs|: 8.328e-05  t[s]:   4896.50
	Linear fluid (dielectric constant: 78.4, screening length: 5.74355 Bohr) occupying 0.706700 of unit cell:	Completed after 14 iterations at t[s]:   4898.94
	FillingsUpdate:  mu: -0.170982349  nElectrons: 596.000000
	Linear fluid (dielectric constant: 78.4, screening length: 5.74355 Bohr) occupying 0.706240 of unit cell:	Completed after 14 iterations at t[s]:   5049.54
SCF: Cycle:  4   F: -2680.479073063237138   dF: -3.042e-05   |Residual|: 1.675e-03   |deigs|: 1.312e-04  t[s]:   5051.52
	Linear fluid (dielectric constant: 78.4, screening length: 5.74355 Bohr) occupying 0.706646 of unit cell:	Completed after 13 iterations at t[s]:   5053.73
	FillingsUpdate:  mu: -0.170895132  nElectrons: 596.000000
	Linear fluid (dielectric constant: 78.4, screening length: 5.74355 Bohr) occupying 0.706226 of unit cell:	Completed after 12 iterations at t[s]:   5207.73
SCF: Cycle:  5   F: -2680.479101550054565   dF: -2.849e-05   |Residual|: 1.094e-03   |deigs|: 8.544e-05  t[s]:   5210.83
	Linear fluid (dielectric constant: 78.4, screening length: 5.74355 Bohr) occupying 0.706578 of unit cell:	Completed after 11 iterations at t[s]:   5213.10
	FillingsUpdate:  mu: -0.170856051  nElectrons: 596.000000
	Linear fluid (dielectric constant: 78.4, screening length: 5.74355 Bohr) occupying 0.706214 of unit cell:	Completed after 11 iterations at t[s]:   5364.56
SCF: Cycle:  6   F: -2680.479108962362261   dF: -7.412e-06   |Residual|: 8.605e-04   |deigs|: 4.054e-05  t[s]:   5366.54
	Linear fluid (dielectric constant: 78.4, screening length: 5.74355 Bohr) occupying 0.706427 of unit cell:	Completed after 12 iterations at t[s]:   5368.70
	FillingsUpdate:  mu: -0.170927910  nElectrons: 596.000000
	Linear fluid (dielectric constant: 78.4, screening length: 5.74355 Bohr) occupying 0.706202 of unit cell:	Completed after 10 iterations at t[s]:   5519.63
SCF: Cycle:  7   F: -2680.479112746987084   dF: -3.785e-06   |Residual|: 6.144e-04   |deigs|: 7.604e-05  t[s]:   5522.23
	Linear fluid (dielectric constant: 78.4, screening length: 5.74355 Bohr) occupying 0.706268 of unit cell:	Completed after 10 iterations at t[s]:   5524.30
	FillingsUpdate:  mu: -0.171013803  nElectrons: 596.000000
	Linear fluid (dielectric constant: 78.4, screening length: 5.74355 Bohr) occupying 0.706196 of unit cell:	Completed after 14 iterations at t[s]:   5675.32
SCF: Cycle:  8   F: -2680.479102259791034   dF: +1.049e-05   |Residual|: 6.347e-04   |deigs|: 9.501e-05  t[s]:   5677.59
	Linear fluid (dielectric constant: 78.4, screening length: 5.74355 Bohr) occupying 0.706217 of unit cell:	Completed after 12 iterations at t[s]:   5679.67
	FillingsUpdate:  mu: -0.171116257  nElectrons: 596.000000
	Linear fluid (dielectric constant: 78.4, screening length: 5.74355 Bohr) occupying 0.706199 of unit cell:	Completed after 10 iterations at t[s]:   5820.71
SCF: Cycle:  9   F: -2680.479121152018706   dF: -1.889e-05   |Residual|: 4.870e-04   |deigs|: 1.119e-04  t[s]:   5822.71
	Linear fluid (dielectric constant: 78.4, screening length: 5.74355 Bohr) occupying 0.706132 of unit cell:	Completed after 9 iterations at t[s]:   5824.53
	FillingsUpdate:  mu: -0.171267417  nElectrons: 596.000000
	Linear fluid (dielectric constant: 78.4, screening length: 5.74355 Bohr) occupying 0.706203 of unit cell:	Completed after 7 iterations at t[s]:   5976.85
SCF: Cycle: 10   F: -2680.479119936935604   dF: +1.215e-06   |Residual|: 4.939e-04   |deigs|: 1.537e-04  t[s]:   5979.08
	Linear fluid (dielectric constant: 78.4, screening length: 5.74355 Bohr) occupying 0.706105 of unit cell:	Completed after 4 iterations at t[s]:   5980.36
	FillingsUpdate:  mu: -0.171146331  nElectrons: 596.000000
	Linear fluid (dielectric constant: 78.4, screening length: 5.74355 Bohr) occupying 0.706193 of unit cell:	Completed after 12 iterations at t[s]:   6131.09
SCF: Cycle: 11   F: -2680.479110252433657   dF: +9.685e-06   |Residual|: 4.410e-04   |deigs|: 1.319e-04  t[s]:   6133.70
	Linear fluid (dielectric constant: 78.4, screening length: 5.74355 Bohr) occupying 0.706085 of unit cell:	Completed after 12 iterations at t[s]:   6136.08
	FillingsUpdate:  mu: -0.171284964  nElectrons: 596.000000
	Linear fluid (dielectric constant: 78.4, screening length: 5.74355 Bohr) occupying 0.706203 of unit cell:	Completed after 6 iterations at t[s]:   6277.30
SCF: Cycle: 12   F: -2680.479122900097536   dF: -1.265e-05   |Residual|: 2.600e-04   |deigs|: 1.449e-04  t[s]:   6279.38
	Linear fluid (dielectric constant: 78.4, screening length: 5.74355 Bohr) occupying 0.706112 of unit cell:	Completed after 4 iterations at t[s]:   6280.69
	FillingsUpdate:  mu: -0.171400951  nElectrons: 596.000000
	Linear fluid (dielectric constant: 78.4, screening length: 5.74355 Bohr) occupying 0.706214 of unit cell:	Completed after 8 iterations at t[s]:   6420.68
SCF: Cycle: 13   F: -2680.479119438041835   dF: +3.462e-06   |Residual|: 3.587e-04   |deigs|: 1.234e-04  t[s]:   6422.55
	Linear fluid (dielectric constant: 78.4, screening length: 5.74355 Bohr) occupying 0.706131 of unit cell:	Completed after 8 iterations at t[s]:   6424.20
	FillingsUpdate:  mu: -0.171215122  nElectrons: 596.000000
	Linear fluid (dielectric constant: 78.4, screening length: 5.74355 Bohr) occupying 0.706200 of unit cell:	Completed after 8 iterations at t[s]:   6576.08
SCF: Cycle: 14   F: -2680.479122140828167   dF: -2.703e-06   |Residual|: 2.079e-04   |deigs|: 1.913e-04  t[s]:   6577.99
	Linear fluid (dielectric constant: 78.4, screening length: 5.74355 Bohr) occupying 0.706151 of unit cell:	Completed after 5 iterations at t[s]:   6579.33
	FillingsUpdate:  mu: -0.171425718  nElectrons: 596.000000
	Linear fluid (dielectric constant: 78.4, screening length: 5.74355 Bohr) occupying 0.706219 of unit cell:	Completed after 10 iterations at t[s]:   6731.19
SCF: Cycle: 15   F: -2680.479117697755100   dF: +4.443e-06   |Residual|: 3.827e-04   |deigs|: 2.176e-04  t[s]:   6733.42
	Linear fluid (dielectric constant: 78.4, screening length: 5.74355 Bohr) occupying 0.706165 of unit cell:	Completed after 10 iterations at t[s]:   6735.31
	FillingsUpdate:  mu: -0.171246980  nElectrons: 596.000000
	Linear fluid (dielectric constant: 78.4, screening length: 5.74355 Bohr) occupying 0.706208 of unit cell:	Completed after 3 iterations at t[s]:   6874.55
SCF: Cycle: 16   F: -2680.479123862520737   dF: -6.165e-06   |Residual|: 1.646e-04   |deigs|: 1.823e-04  t[s]:   6877.02
	Linear fluid (dielectric constant: 78.4, screening length: 5.74355 Bohr) occupying 0.706204 of unit cell:	Completed after 2 iterations at t[s]:   6878.13
	FillingsUpdate:  mu: -0.171269859  nElectrons: 596.000000
	Linear fluid (dielectric constant: 78.4, screening length: 5.74355 Bohr) occupying 0.706215 of unit cell:	Completed after 3 iterations at t[s]:   7013.97
SCF: Cycle: 17   F: -2680.479123578862072   dF: +2.837e-07   |Residual|: 2.113e-04   |deigs|: 3.329e-05  t[s]:   7016.16
	Linear fluid (dielectric constant: 78.4, screening length: 5.74355 Bohr) occupying 0.706210 of unit cell:	Completed after 3 iterations at t[s]:   7017.31
	FillingsUpdate:  mu: -0.171223044  nElectrons: 596.000000
	Linear fluid (dielectric constant: 78.4, screening length: 5.74355 Bohr) occupying 0.706213 of unit cell:	Completed after 6 iterations at t[s]:   7169.05
SCF: Cycle: 18   F: -2680.479122363693023   dF: +1.215e-06   |Residual|: 2.158e-04   |deigs|: 5.104e-05  t[s]:   7171.30
	Linear fluid (dielectric constant: 78.4, screening length: 5.74355 Bohr) occupying 0.706219 of unit cell:	Completed after 3 iterations at t[s]:   7172.49
	FillingsUpdate:  mu: -0.171372849  nElectrons: 596.000000
	Linear fluid (dielectric constant: 78.4, screening length: 5.74355 Bohr) occupying 0.706225 of unit cell:	Completed after 10 iterations at t[s]:   7323.13
SCF: Cycle: 19   F: -2680.479112846330736   dF: +9.517e-06   |Residual|: 4.686e-04   |deigs|: 1.560e-04  t[s]:   7324.94
	Linear fluid (dielectric constant: 78.4, screening length: 5.74355 Bohr) occupying 0.706220 of unit cell:	Completed after 12 iterations at t[s]:   7327.01
	FillingsUpdate:  mu: -0.171243530  nElectrons: 596.000000
	Linear fluid (dielectric constant: 78.4, screening length: 5.74355 Bohr) occupying 0.706214 of unit cell:	Completed after 2 iterations at t[s]:   7452.02
SCF: Cycle: 20   F: -2680.479123925374552   dF: -1.108e-05   |Residual|: 1.082e-04   |deigs|: 1.344e-04  t[s]:   7454.55
	Linear fluid (dielectric constant: 78.4, screening length: 5.74355 Bohr) occupying 0.706227 of unit cell:	Completed after 1 iterations at t[s]:   7455.42
	FillingsUpdate:  mu: -0.171229530  nElectrons: 596.000000
	Linear fluid (dielectric constant: 78.4, screening length: 5.74355 Bohr) occupying 0.706216 of unit cell:	Completed after 3 iterations at t[s]:   7596.85
SCF: Cycle: 21   F: -2680.479122415285019   dF: +1.510e-06   |Residual|: 1.961e-04   |deigs|: 2.329e-05  t[s]:   7599.30
	Linear fluid (dielectric constant: 78.4, screening length: 5.74355 Bohr) occupying 0.706227 of unit cell:	Completed after 3 iterations at t[s]:   7600.55
	FillingsUpdate:  mu: -0.171332533  nElectrons: 596.000000
	Linear fluid (dielectric constant: 78.4, screening length: 5.74355 Bohr) occupying 0.706223 of unit cell:	Completed after 9 iterations at t[s]:   7751.63
SCF: Cycle: 22   F: -2680.479116535600042   dF: +5.880e-06   |Residual|: 3.907e-04   |deigs|: 1.090e-04  t[s]:   7753.68
	Linear fluid (dielectric constant: 78.4, screening length: 5.74355 Bohr) occupying 0.706220 of unit cell:	Completed after 8 iterations at t[s]:   7755.22
	FillingsUpdate:  mu: -0.171192791  nElectrons: 596.000000
	Linear fluid (dielectric constant: 78.4, screening length: 5.74355 Bohr) occupying 0.706212 of unit cell:	Completed after 5 iterations at t[s]:   7894.73
SCF: Cycle: 23   F: -2680.479123627649642   dF: -7.092e-06   |Residual|: 1.078e-04   |deigs|: 1.448e-04  t[s]:   7896.91
	Linear fluid (dielectric constant: 78.4, screening length: 5.74355 Bohr) occupying 0.706219 of unit cell:	Completed after 3 iterations at t[s]:   7898.13
	FillingsUpdate:  mu: -0.171329217  nElectrons: 596.000000
	Linear fluid (dielectric constant: 78.4, screening length: 5.74355 Bohr) occupying 0.706223 of unit cell:	Completed after 8 iterations at t[s]:   8011.86
SCF: Cycle: 24   F: -2680.479118916881816   dF: +4.711e-06   |Residual|: 3.237e-04   |deigs|: 1.409e-04  t[s]:   8013.98
	Linear fluid (dielectric constant: 78.4, screening length: 5.74355 Bohr) occupying 0.706215 of unit cell:	Completed after 8 iterations at t[s]:   8015.65
	FillingsUpdate:  mu: -0.171211638  nElectrons: 596.000000
	Linear fluid (dielectric constant: 78.4, screening length: 5.74355 Bohr) occupying 0.706212 of unit cell:	Completed after 3 iterations at t[s]:   8153.37
SCF: Cycle: 25   F: -2680.479123936479027   dF: -5.020e-06   |Residual|: 7.541e-05   |deigs|: 1.237e-04  t[s]:   8155.56
	Linear fluid (dielectric constant: 78.4, screening length: 5.74355 Bohr) occupying 0.706218 of unit cell:	Completed after 2 iterations at t[s]:   8156.60
	FillingsUpdate:  mu: -0.171293405  nElectrons: 596.000000
	Linear fluid (dielectric constant: 78.4, screening length: 5.74355 Bohr) occupying 0.706219 of unit cell:	Completed after 8 iterations at t[s]:   8268.11
SCF: Cycle: 26   F: -2680.479121268370363   dF: +2.668e-06   |Residual|: 2.587e-04   |deigs|: 8.613e-05  t[s]:   8270.07
	Linear fluid (dielectric constant: 78.4, screening length: 5.74355 Bohr) occupying 0.706219 of unit cell:	Completed after 8 iterations at t[s]:   8271.67
	FillingsUpdate:  mu: -0.171217364  nElectrons: 596.000000
	Linear fluid (dielectric constant: 78.4, screening length: 5.74355 Bohr) occupying 0.706214 of unit cell:	Completed after 3 iterations at t[s]:   8403.69
SCF: Cycle: 27   F: -2680.479123912198702   dF: -2.644e-06   |Residual|: 7.651e-05   |deigs|: 8.106e-05  t[s]:   8405.85
	Linear fluid (dielectric constant: 78.4, screening length: 5.74355 Bohr) occupying 0.706215 of unit cell:	Completed after 2 iterations at t[s]:   8406.97
	FillingsUpdate:  mu: -0.171296488  nElectrons: 596.000000
	Linear fluid (dielectric constant: 78.4, screening length: 5.74355 Bohr) occupying 0.706219 of unit cell:	Completed after 8 iterations at t[s]:   8546.42
SCF: Cycle: 28   F: -2680.479121886527537   dF: +2.026e-06   |Residual|: 2.120e-04   |deigs|: 8.798e-05  t[s]:   8548.77
	Linear fluid (dielectric constant: 78.4, screening length: 5.74355 Bohr) occupying 0.706217 of unit cell:	Completed after 4 iterations at t[s]:   8550.12
	FillingsUpdate:  mu: -0.171147554  nElectrons: 596.000000
	Linear fluid (dielectric constant: 78.4, screening length: 5.74355 Bohr) occupying 0.706208 of unit cell:	Completed after 8 iterations at t[s]:   8690.54
SCF: Cycle: 29   F: -2680.479121298843893   dF: +5.877e-07   |Residual|: 1.963e-04   |deigs|: 1.542e-04  t[s]:   8692.39
	Linear fluid (dielectric constant: 78.4, screening length: 5.74355 Bohr) occupying 0.706217 of unit cell:	Completed after 7 iterations at t[s]:   8693.91
	FillingsUpdate:  mu: -0.171328866  nElectrons: 596.000000
	Linear fluid (dielectric constant: 78.4, screening length: 5.74355 Bohr) occupying 0.706223 of unit cell:	Completed after 8 iterations at t[s]:   8845.41
SCF: Cycle: 30   F: -2680.479122942680988   dF: -1.644e-06   |Residual|: 1.679e-04   |deigs|: 1.863e-04  t[s]:   8847.38
	Linear fluid (dielectric constant: 78.4, screening length: 5.74355 Bohr) occupying 0.706216 of unit cell:	Completed after 3 iterations at t[s]:   8848.46
	FillingsUpdate:  mu: -0.171144862  nElectrons: 596.000000
	Linear fluid (dielectric constant: 78.4, screening length: 5.74355 Bohr) occupying 0.706209 of unit cell:	Completed after 10 iterations at t[s]:   8999.62
SCF: Cycle: 31   F: -2680.479118466901582   dF: +4.476e-06   |Residual|: 2.886e-04   |deigs|: 1.887e-04  t[s]:   9001.75
	Linear fluid (dielectric constant: 78.4, screening length: 5.74355 Bohr) occupying 0.706217 of unit cell:	Completed after 8 iterations at t[s]:   9003.48
	FillingsUpdate:  mu: -0.171334434  nElectrons: 596.000000
	Linear fluid (dielectric constant: 78.4, screening length: 5.74355 Bohr) occupying 0.706224 of unit cell:	Completed after 8 iterations at t[s]:   9104.92
SCF: Cycle: 32   F: -2680.479122894867942   dF: -4.428e-06   |Residual|: 1.643e-04   |deigs|: 1.942e-04  t[s]:   9107.37
	Linear fluid (dielectric constant: 78.4, screening length: 5.74355 Bohr) occupying 0.706217 of unit cell:	Completed after 4 iterations at t[s]:   9108.78
	FillingsUpdate:  mu: -0.171166524  nElectrons: 596.000000
	Linear fluid (dielectric constant: 78.4, screening length: 5.74355 Bohr) occupying 0.706210 of unit cell:	Completed after 8 iterations at t[s]:   9241.66
SCF: Cycle: 33   F: -2680.479122012583957   dF: +8.823e-07   |Residual|: 1.727e-04   |deigs|: 1.720e-04  t[s]:   9244.75
	Linear fluid (dielectric constant: 78.4, screening length: 5.74355 Bohr) occupying 0.706216 of unit cell:	Completed after 4 iterations at t[s]:   9246.32
	FillingsUpdate:  mu: -0.171390129  nElectrons: 596.000000
	Linear fluid (dielectric constant: 78.4, screening length: 5.74355 Bohr) occupying 0.706228 of unit cell:	Completed after 10 iterations at t[s]:   9397.60
SCF: Cycle: 34   F: -2680.479117600778864   dF: +4.412e-06   |Residual|: 3.434e-04   |deigs|: 2.282e-04  t[s]:   9399.78
	Linear fluid (dielectric constant: 78.4, screening length: 5.74355 Bohr) occupying 0.706217 of unit cell:	Completed after 9 iterations at t[s]:   9401.60
	FillingsUpdate:  mu: -0.171227715  nElectrons: 596.000000
	Linear fluid (dielectric constant: 78.4, screening length: 5.74355 Bohr) occupying 0.706214 of unit cell:	Completed after 2 iterations at t[s]:   9503.37
SCF: Cycle: 35   F: -2680.479124053564192   dF: -6.453e-06   |Residual|: 5.957e-05   |deigs|: 1.668e-04  t[s]:   9505.48
	Linear fluid (dielectric constant: 78.4, screening length: 5.74355 Bohr) occupying 0.706216 of unit cell:	Completed after 0 iterations at t[s]:   9506.09
	FillingsUpdate:  mu: -0.171255201  nElectrons: 596.000000
	Linear fluid (dielectric constant: 78.4, screening length: 5.74355 Bohr) occupying 0.706217 of unit cell:	Completed after 3 iterations at t[s]:   9600.07
SCF: Cycle: 36   F: -2680.479123031161180   dF: +1.022e-06   |Residual|: 2.140e-04   |deigs|: 3.499e-05  t[s]:   9602.32
	Linear fluid (dielectric constant: 78.4, screening length: 5.74355 Bohr) occupying 0.706217 of unit cell:	Completed after 4 iterations at t[s]:   9603.65
	FillingsUpdate:  mu: -0.171229246  nElectrons: 596.000000
	Linear fluid (dielectric constant: 78.4, screening length: 5.74355 Bohr) occupying 0.706215 of unit cell:	Completed after 3 iterations at t[s]:   9724.56
SCF: Cycle: 37   F: -2680.479123414449077   dF: -3.833e-07   |Residual|: 1.104e-04   |deigs|: 3.403e-05  t[s]:   9726.63
	Linear fluid (dielectric constant: 78.4, screening length: 5.74355 Bohr) occupying 0.706217 of unit cell:	Completed after 3 iterations at t[s]:   9727.68
	FillingsUpdate:  mu: -0.171316122  nElectrons: 596.000000
	Linear fluid (dielectric constant: 78.4, screening length: 5.74355 Bohr) occupying 0.706222 of unit cell:	Completed after 8 iterations at t[s]:   9869.21
SCF: Cycle: 38   F: -2680.479121362047863   dF: +2.052e-06   |Residual|: 2.234e-04   |deigs|: 9.079e-05  t[s]:   9871.44
	Linear fluid (dielectric constant: 78.4, screening length: 5.74355 Bohr) occupying 0.706217 of unit cell:	Completed after 5 iterations at t[s]:   9872.88
	FillingsUpdate:  mu: -0.171147901  nElectrons: 596.000000
	Linear fluid (dielectric constant: 78.4, screening length: 5.74355 Bohr) occupying 0.706209 of unit cell:	Completed after 8 iterations at t[s]:   9983.19
SCF: Cycle: 39   F: -2680.479121454762208   dF: -9.271e-08   |Residual|: 2.150e-04   |deigs|: 1.728e-04  t[s]:   9985.55
	Linear fluid (dielectric constant: 78.4, screening length: 5.74355 Bohr) occupying 0.706217 of unit cell:	Completed after 8 iterations at t[s]:   9987.26
	FillingsUpdate:  mu: -0.171329611  nElectrons: 596.000000
	Linear fluid (dielectric constant: 78.4, screening length: 5.74355 Bohr) occupying 0.706223 of unit cell:	Completed after 5 iterations at t[s]:  10138.25
SCF: Cycle: 40   F: -2680.479123340724527   dF: -1.886e-06   |Residual|: 1.438e-04   |deigs|: 1.861e-04  t[s]:  10140.69
	Linear fluid (dielectric constant: 78.4, screening length: 5.74355 Bohr) occupying 0.706216 of unit cell:	Completed after 3 iterations at t[s]:  10141.96
	FillingsUpdate:  mu: -0.171180816  nElectrons: 596.000000
	Linear fluid (dielectric constant: 78.4, screening length: 5.74355 Bohr) occupying 0.706212 of unit cell:	Completed after 8 iterations at t[s]:  10245.97
SCF: Cycle: 41   F: -2680.479120184627845   dF: +3.156e-06   |Residual|: 2.329e-04   |deigs|: 1.524e-04  t[s]:  10248.22
	Linear fluid (dielectric constant: 78.4, screening length: 5.74355 Bohr) occupying 0.706216 of unit cell:	Completed after 7 iterations at t[s]:  10249.81
	FillingsUpdate:  mu: -0.171341142  nElectrons: 596.000000
	Linear fluid (dielectric constant: 78.4, screening length: 5.74355 Bohr) occupying 0.706224 of unit cell:	Completed after 8 iterations at t[s]:  10353.03
SCF: Cycle: 42   F: -2680.479122493942668   dF: -2.309e-06   |Residual|: 1.856e-04   |deigs|: 1.643e-04  t[s]:  10354.88
	Linear fluid (dielectric constant: 78.4, screening length: 5.74355 Bohr) occupying 0.706216 of unit cell:	Completed after 4 iterations at t[s]:  10356.06
	FillingsUpdate:  mu: -0.171146983  nElectrons: 596.000000
	Linear fluid (dielectric constant: 78.4, screening length: 5.74355 Bohr) occupying 0.706209 of unit cell:	Completed after 8 iterations at t[s]:  10458.02
SCF: Cycle: 43   F: -2680.479120349439654   dF: +2.145e-06   |Residual|: 2.434e-04   |deigs|: 1.985e-04  t[s]:  10460.21
	Linear fluid (dielectric constant: 78.4, screening length: 5.74355 Bohr) occupying 0.706216 of unit cell:	Completed after 8 iterations at t[s]:  10462.02
	FillingsUpdate:  mu: -0.171336195  nElectrons: 596.000000
	Linear fluid (dielectric constant: 78.4, screening length: 5.74355 Bohr) occupying 0.706224 of unit cell:	Completed after 8 iterations at t[s]:  10564.14
SCF: Cycle: 44   F: -2680.479122934553743   dF: -2.585e-06   |Residual|: 1.561e-04   |deigs|: 1.934e-04  t[s]:  10566.28
	Linear fluid (dielectric constant: 78.4, screening length: 5.74355 Bohr) occupying 0.706216 of unit cell:	Completed after 3 iterations at t[s]:  10567.45
	FillingsUpdate:  mu: -0.171153189  nElectrons: 596.000000
	Linear fluid (dielectric constant: 78.4, screening length: 5.74355 Bohr) occupying 0.706209 of unit cell:	Completed after 9 iterations at t[s]:  10669.74
SCF: Cycle: 45   F: -2680.479120091232744   dF: +2.843e-06   |Residual|: 2.435e-04   |deigs|: 1.873e-04  t[s]:  10672.04
	Linear fluid (dielectric constant: 78.4, screening length: 5.74355 Bohr) occupying 0.706216 of unit cell:	Completed after 8 iterations at t[s]:  10673.75
	FillingsUpdate:  mu: -0.171335143  nElectrons: 596.000000
	Linear fluid (dielectric constant: 78.4, screening length: 5.74355 Bohr) occupying 0.706224 of unit cell:	Completed after 5 iterations at t[s]:  10795.81
SCF: Cycle: 46   F: -2680.479123152849297   dF: -3.062e-06   |Residual|: 1.486e-04   |deigs|: 1.861e-04  t[s]:  10798.02
	Linear fluid (dielectric constant: 78.4, screening length: 5.74355 Bohr) occupying 0.706216 of unit cell:	Completed after 3 iterations at t[s]:  10799.15
	FillingsUpdate:  mu: -0.171174429  nElectrons: 596.000000
	Linear fluid (dielectric constant: 78.4, screening length: 5.74355 Bohr) occupying 0.706211 of unit cell:	Completed after 8 iterations at t[s]:  10898.96
SCF: Cycle: 47   F: -2680.479120174369200   dF: +2.978e-06   |Residual|: 2.272e-04   |deigs|: 1.646e-04  t[s]:  10901.11
	Linear fluid (dielectric constant: 78.4, screening length: 5.74355 Bohr) occupying 0.706216 of unit cell:	Completed after 7 iterations at t[s]:  10902.85
	FillingsUpdate:  mu: -0.171331785  nElectrons: 596.000000
	Linear fluid (dielectric constant: 78.4, screening length: 5.74355 Bohr) occupying 0.706223 of unit cell:	Completed after 5 iterations at t[s]:  11034.42
SCF: Cycle: 48   F: -2680.479122982593253   dF: -2.808e-06   |Residual|: 1.597e-04   |deigs|: 1.615e-04  t[s]:  11036.56
	Linear fluid (dielectric constant: 78.4, screening length: 5.74355 Bohr) occupying 0.706216 of unit cell:	Completed after 3 iterations at t[s]:  11037.66
	FillingsUpdate:  mu: -0.171169305  nElectrons: 596.000000
	Linear fluid (dielectric constant: 78.4, screening length: 5.74355 Bohr) occupying 0.706211 of unit cell:	Completed after 8 iterations at t[s]:  11159.38
SCF: Cycle: 49   F: -2680.479119699248713   dF: +3.283e-06   |Residual|: 2.451e-04   |deigs|: 1.667e-04  t[s]:  11161.38
	Linear fluid (dielectric constant: 78.4, screening length: 5.74355 Bohr) occupying 0.706216 of unit cell:	Completed after 8 iterations at t[s]:  11163.03
	FillingsUpdate:  mu: -0.171330115  nElectrons: 596.000000
	Linear fluid (dielectric constant: 78.4, screening length: 5.74355 Bohr) occupying 0.706223 of unit cell:	Completed after 6 iterations at t[s]:  11293.13
SCF: Cycle: 50   F: -2680.479123184831678   dF: -3.486e-06   |Residual|: 1.310e-04   |deigs|: 1.648e-04  t[s]:  11295.09
	Linear fluid (dielectric constant: 78.4, screening length: 5.74355 Bohr) occupying 0.706215 of unit cell:	Completed after 3 iterations at t[s]:  11296.18
	FillingsUpdate:  mu: -0.171166339  nElectrons: 596.000000
	Linear fluid (dielectric constant: 78.4, screening length: 5.74355 Bohr) occupying 0.706211 of unit cell:	Completed after 8 iterations at t[s]:  11408.11
SCF: Cycle: 51   F: -2680.479119792422807   dF: +3.392e-06   |Residual|: 2.604e-04   |deigs|: 1.680e-04  t[s]:  11410.23
	Linear fluid (dielectric constant: 78.4, screening length: 5.74355 Bohr) occupying 0.706215 of unit cell:	Completed after 5 iterations at t[s]:  11411.66
	FillingsUpdate:  mu: -0.171418176  nElectrons: 596.000000
	Linear fluid (dielectric constant: 78.4, screening length: 5.74355 Bohr) occupying 0.706230 of unit cell:	Completed after 9 iterations at t[s]:  11540.85
SCF: Cycle: 52   F: -2680.479119396110491   dF: +3.963e-07   |Residual|: 2.698e-04   |deigs|: 2.569e-04  t[s]:  11542.90
	Linear fluid (dielectric constant: 78.4, screening length: 5.74355 Bohr) occupying 0.706216 of unit cell:	Completed after 8 iterations at t[s]:  11544.61
	FillingsUpdate:  mu: -0.171229482  nElectrons: 596.000000
	Linear fluid (dielectric constant: 78.4, screening length: 5.74355 Bohr) occupying 0.706215 of unit cell:	Completed after 3 iterations at t[s]:  11695.48
SCF: Cycle: 53   F: -2680.479123914771662   dF: -4.519e-06   |Residual|: 1.089e-04   |deigs|: 1.931e-04  t[s]:  11697.46
	Linear fluid (dielectric constant: 78.4, screening length: 5.74355 Bohr) occupying 0.706216 of unit cell:	Completed after 0 iterations at t[s]:  11698.09
	FillingsUpdate:  mu: -0.171258116  nElectrons: 596.000000
	Linear fluid (dielectric constant: 78.4, screening length: 5.74355 Bohr) occupying 0.706217 of unit cell:	Completed after 3 iterations at t[s]:  11820.16
SCF: Cycle: 54   F: -2680.479119439397891   dF: +4.475e-06   |Residual|: 4.555e-04   |deigs|: 4.308e-05  t[s]:  11822.60
	Linear fluid (dielectric constant: 78.4, screening length: 5.74355 Bohr) occupying 0.706216 of unit cell:	Completed after 3 iterations at t[s]:  11823.85
	FillingsUpdate:  mu: -0.171247797  nElectrons: 596.000000
	Linear fluid (dielectric constant: 78.4, screening length: 5.74355 Bohr) occupying 0.706216 of unit cell:	Completed after 2 iterations at t[s]:  11917.01
SCF: Cycle: 55   F: -2680.479123948931829   dF: -4.510e-06   |Residual|: 7.099e-05   |deigs|: 2.739e-05  t[s]:  11919.06
	Linear fluid (dielectric constant: 78.4, screening length: 5.74355 Bohr) occupying 0.706216 of unit cell:	Completed after 0 iterations at t[s]:  11919.84
	FillingsUpdate:  mu: -0.171248056  nElectrons: 596.000000
	Linear fluid (dielectric constant: 78.4, screening length: 5.74355 Bohr) occupying 0.706217 of unit cell:	Completed after 5 iterations at t[s]:  12015.01
SCF: Cycle: 56   F: -2680.479121175901582   dF: +2.773e-06   |Residual|: 2.635e-04   |deigs|: 3.179e-05  t[s]:  12017.12
	Linear fluid (dielectric constant: 78.4, screening length: 5.74355 Bohr) occupying 0.706216 of unit cell:	Completed after 3 iterations at t[s]:  12018.23
	FillingsUpdate:  mu: -0.171323882  nElectrons: 596.000000
	Linear fluid (dielectric constant: 78.4, screening length: 5.74355 Bohr) occupying 0.706222 of unit cell:	Completed after 8 iterations at t[s]:  12142.64
SCF: Cycle: 57   F: -2680.479119968085797   dF: +1.208e-06   |Residual|: 2.446e-04   |deigs|: 8.467e-05  t[s]:  12144.94
	Linear fluid (dielectric constant: 78.4, screening length: 5.74355 Bohr) occupying 0.706216 of unit cell:	Completed after 8 iterations at t[s]:  12146.69
	FillingsUpdate:  mu: -0.171206735  nElectrons: 596.000000
	Linear fluid (dielectric constant: 78.4, screening length: 5.74355 Bohr) occupying 0.706213 of unit cell:	Completed after 5 iterations at t[s]:  12259.24
SCF: Cycle: 58   F: -2680.479123587993854   dF: -3.620e-06   |Residual|: 1.176e-04   |deigs|: 1.219e-04  t[s]:  12261.49
	Linear fluid (dielectric constant: 78.4, screening length: 5.74355 Bohr) occupying 0.706216 of unit cell:	Completed after 3 iterations at t[s]:  12262.65
	FillingsUpdate:  mu: -0.171334824  nElectrons: 596.000000
	Linear fluid (dielectric constant: 78.4, screening length: 5.74355 Bohr) occupying 0.706223 of unit cell:	Completed after 7 iterations at t[s]:  12356.28
SCF: Cycle: 59   F: -2680.479120515650720   dF: +3.072e-06   |Residual|: 2.218e-04   |deigs|: 1.317e-04  t[s]:  12358.73
	Linear fluid (dielectric constant: 78.4, screening length: 5.74355 Bohr) occupying 0.706216 of unit cell:	Completed after 7 iterations at t[s]:  12360.65
	FillingsUpdate:  mu: -0.171192684  nElectrons: 596.000000
	Linear fluid (dielectric constant: 78.4, screening length: 5.74355 Bohr) occupying 0.706212 of unit cell:	Completed after 8 iterations at t[s]:  12464.52
SCF: Cycle: 60   F: -2680.479123150652413   dF: -2.635e-06   |Residual|: 1.390e-04   |deigs|: 1.461e-04  t[s]:  12467.62
	Linear fluid (dielectric constant: 78.4, screening length: 5.74355 Bohr) occupying 0.706216 of unit cell:	Completed after 4 iterations at t[s]:  12469.23
	FillingsUpdate:  mu: -0.171360473  nElectrons: 596.000000
	Linear fluid (dielectric constant: 78.4, screening length: 5.74355 Bohr) occupying 0.706226 of unit cell:	Completed after 8 iterations at t[s]:  12573.97
SCF: Cycle: 61   F: -2680.479119741106842   dF: +3.410e-06   |Residual|: 2.493e-04   |deigs|: 1.717e-04  t[s]:  12576.40
	Linear fluid (dielectric constant: 78.4, screening length: 5.74355 Bohr) occupying 0.706216 of unit cell:	Completed after 8 iterations at t[s]:  12578.36
	FillingsUpdate:  mu: -0.171210561  nElectrons: 596.000000
	Linear fluid (dielectric constant: 78.4, screening length: 5.74355 Bohr) occupying 0.706213 of unit cell:	Completed after 4 iterations at t[s]:  12673.31
SCF: Cycle: 62   F: -2680.479123647894085   dF: -3.907e-06   |Residual|: 1.099e-04   |deigs|: 1.539e-04  t[s]:  12675.19
	Linear fluid (dielectric constant: 78.4, screening length: 5.74355 Bohr) occupying 0.706216 of unit cell:	Completed after 3 iterations at t[s]:  12676.33
	FillingsUpdate:  mu: -0.171319793  nElectrons: 596.000000
	Linear fluid (dielectric constant: 78.4, screening length: 5.74355 Bohr) occupying 0.706222 of unit cell:	Completed after 6 iterations at t[s]:  12769.91
SCF: Cycle: 63   F: -2680.479121653047969   dF: +1.995e-06   |Residual|: 1.865e-04   |deigs|: 1.128e-04  t[s]:  12772.11
	Linear fluid (dielectric constant: 78.4, screening length: 5.74355 Bohr) occupying 0.706216 of unit cell:	Completed after 5 iterations at t[s]:  12773.40
	FillingsUpdate:  mu: -0.171157341  nElectrons: 596.000000
	Linear fluid (dielectric constant: 78.4, screening length: 5.74355 Bohr) occupying 0.706210 of unit cell:	Completed after 8 iterations at t[s]:  12878.96
SCF: Cycle: 64   F: -2680.479121858202234   dF: -2.052e-07   |Residual|: 2.030e-04   |deigs|: 1.667e-04  t[s]:  12881.30
	Linear fluid (dielectric constant: 78.4, screening length: 5.74355 Bohr) occupying 0.706216 of unit cell:	Completed after 5 iterations at t[s]:  12882.73
	FillingsUpdate:  mu: -0.171386936  nElectrons: 596.000000
	Linear fluid (dielectric constant: 78.4, screening length: 5.74355 Bohr) occupying 0.706228 of unit cell:	Completed after 8 iterations at t[s]:  13038.90
SCF: Cycle: 65   F: -2680.479119380350767   dF: +2.478e-06   |Residual|: 2.693e-04   |deigs|: 2.341e-04  t[s]:  13040.86
	Linear fluid (dielectric constant: 78.4, screening length: 5.74355 Bohr) occupying 0.706216 of unit cell:	Completed after 8 iterations at t[s]:  13042.58
	FillingsUpdate:  mu: -0.171212687  nElectrons: 596.000000
	Linear fluid (dielectric constant: 78.4, screening length: 5.74355 Bohr) occupying 0.706213 of unit cell:	Completed after 4 iterations at t[s]:  13143.62
SCF: Cycle: 66   F: -2680.479123727663591   dF: -4.347e-06   |Residual|: 9.172e-05   |deigs|: 1.784e-04  t[s]:  13145.83
	Linear fluid (dielectric constant: 78.4, screening length: 5.74355 Bohr) occupying 0.706216 of unit cell:	Completed after 3 iterations at t[s]:  13147.05
	FillingsUpdate:  mu: -0.171314167  nElectrons: 596.000000
	Linear fluid (dielectric constant: 78.4, screening length: 5.74355 Bohr) occupying 0.706221 of unit cell:	Completed after 6 iterations at t[s]:  13238.45
SCF: Cycle: 67   F: -2680.479122116455983   dF: +1.611e-06   |Residual|: 1.805e-04   |deigs|: 1.048e-04  t[s]:  13240.30
	Linear fluid (dielectric constant: 78.4, screening length: 5.74355 Bohr) occupying 0.706216 of unit cell:	Completed after 5 iterations at t[s]:  13241.64
	FillingsUpdate:  mu: -0.171163830  nElectrons: 596.000000
	Linear fluid (dielectric constant: 78.4, screening length: 5.74355 Bohr) occupying 0.706210 of unit cell:	Completed after 8 iterations at t[s]:  13342.92
SCF: Cycle: 68   F: -2680.479122208165791   dF: -9.171e-08   |Residual|: 1.806e-04   |deigs|: 1.541e-04  t[s]:  13344.94
	Linear fluid (dielectric constant: 78.4, screening length: 5.74355 Bohr) occupying 0.706216 of unit cell:	Completed after 4 iterations at t[s]:  13346.15
	FillingsUpdate:  mu: -0.171387917  nElectrons: 596.000000
	Linear fluid (dielectric constant: 78.4, screening length: 5.74355 Bohr) occupying 0.706228 of unit cell:	Completed after 8 iterations at t[s]:  13494.71
SCF: Cycle: 69   F: -2680.479117159957696   dF: +5.048e-06   |Residual|: 3.414e-04   |deigs|: 2.290e-04  t[s]:  13496.92
	Linear fluid (dielectric constant: 78.4, screening length: 5.74355 Bohr) occupying 0.706216 of unit cell:	Completed after 9 iterations at t[s]:  13498.80
	FillingsUpdate:  mu: -0.171217118  nElectrons: 596.000000
	Linear fluid (dielectric constant: 78.4, screening length: 5.74355 Bohr) occupying 0.706213 of unit cell:	Completed after 3 iterations at t[s]:  13590.22
SCF: Cycle: 70   F: -2680.479123908564816   dF: -6.749e-06   |Residual|: 7.925e-05   |deigs|: 1.754e-04  t[s]:  13592.43
	Linear fluid (dielectric constant: 78.4, screening length: 5.74355 Bohr) occupying 0.706216 of unit cell:	Completed after 2 iterations at t[s]:  13593.40
	FillingsUpdate:  mu: -0.171287268  nElectrons: 596.000000
	Linear fluid (dielectric constant: 78.4, screening length: 5.74355 Bohr) occupying 0.706219 of unit cell:	Completed after 5 iterations at t[s]:  13684.01
SCF: Cycle: 71   F: -2680.479121526602285   dF: +2.382e-06   |Residual|: 2.372e-04   |deigs|: 7.531e-05  t[s]:  13686.02
	Linear fluid (dielectric constant: 78.4, screening length: 5.74355 Bohr) occupying 0.706216 of unit cell:	Completed after 5 iterations at t[s]:  13687.38
	FillingsUpdate:  mu: -0.171168183  nElectrons: 596.000000
	Linear fluid (dielectric constant: 78.4, screening length: 5.74355 Bohr) occupying 0.706211 of unit cell:	Completed after 8 iterations at t[s]:  13788.19
SCF: Cycle: 72   F: -2680.479120309537393   dF: +1.217e-06   |Residual|: 2.364e-04   |deigs|: 1.249e-04  t[s]:  13790.20
	Linear fluid (dielectric constant: 78.4, screening length: 5.74355 Bohr) occupying 0.706216 of unit cell:	Completed after 8 iterations at t[s]:  13791.81
	FillingsUpdate:  mu: -0.171327280  nElectrons: 596.000000
	Linear fluid (dielectric constant: 78.4, screening length: 5.74355 Bohr) occupying 0.706223 of unit cell:	Completed after 3 iterations at t[s]:  13910.58
SCF: Cycle: 73   F: -2680.479123385297953   dF: -3.076e-06   |Residual|: 1.460e-04   |deigs|: 1.629e-04  t[s]:  13913.01
	Linear fluid (dielectric constant: 78.4, screening length: 5.74355 Bohr) occupying 0.706216 of unit cell:	Completed after 3 iterations at t[s]:  13914.27
	FillingsUpdate:  mu: -0.171200312  nElectrons: 596.000000
	Linear fluid (dielectric constant: 78.4, screening length: 5.74355 Bohr) occupying 0.706213 of unit cell:	Completed after 7 iterations at t[s]:  14005.30
SCF: Cycle: 74   F: -2680.479121223808761   dF: +2.161e-06   |Residual|: 1.963e-04   |deigs|: 1.304e-04  t[s]:  14007.42
	Linear fluid (dielectric constant: 78.4, screening length: 5.74355 Bohr) occupying 0.706216 of unit cell:	Completed after 6 iterations at t[s]:  14008.88
	FillingsUpdate:  mu: -0.171354441  nElectrons: 596.000000
	Linear fluid (dielectric constant: 78.4, screening length: 5.74355 Bohr) occupying 0.706225 of unit cell:	Completed after 8 iterations at t[s]:  14108.31
SCF: Cycle: 75   F: -2680.479122158259997   dF: -9.345e-07   |Residual|: 1.995e-04   |deigs|: 1.582e-04  t[s]:  14110.63
	Linear fluid (dielectric constant: 78.4, screening length: 5.74355 Bohr) occupying 0.706216 of unit cell:	Completed after 5 iterations at t[s]:  14111.99
	FillingsUpdate:  mu: -0.171151412  nElectrons: 596.000000
	Linear fluid (dielectric constant: 78.4, screening length: 5.74355 Bohr) occupying 0.706210 of unit cell:	Completed after 8 iterations at t[s]:  14249.36
SCF: Cycle: 76   F: -2680.479120388097272   dF: +1.770e-06   |Residual|: 2.450e-04   |deigs|: 2.072e-04  t[s]:  14251.16
	Linear fluid (dielectric constant: 78.4, screening length: 5.74355 Bohr) occupying 0.706216 of unit cell:	Completed after 8 iterations at t[s]:  14252.77
	FillingsUpdate:  mu: -0.171322487  nElectrons: 596.000000
	Linear fluid (dielectric constant: 78.4, screening length: 5.74355 Bohr) occupying 0.706223 of unit cell:	Completed after 3 iterations at t[s]:  14352.50
SCF: Cycle: 77   F: -2680.479123478092333   dF: -3.090e-06   |Residual|: 1.367e-04   |deigs|: 1.746e-04  t[s]:  14354.71
	Linear fluid (dielectric constant: 78.4, screening length: 5.74355 Bohr) occupying 0.706216 of unit cell:	Completed after 3 iterations at t[s]:  14355.81
	FillingsUpdate:  mu: -0.171210892  nElectrons: 596.000000
	Linear fluid (dielectric constant: 78.4, screening length: 5.74355 Bohr) occupying 0.706214 of unit cell:	Completed after 6 iterations at t[s]:  14447.40
SCF: Cycle: 78   F: -2680.479122253539572   dF: +1.225e-06   |Residual|: 1.619e-04   |deigs|: 1.143e-04  t[s]:  14449.22
	Linear fluid (dielectric constant: 78.4, screening length: 5.74355 Bohr) occupying 0.706216 of unit cell:	Completed after 5 iterations at t[s]:  14450.54
	FillingsUpdate:  mu: -0.171357208  nElectrons: 596.000000
	Linear fluid (dielectric constant: 78.4, screening length: 5.74355 Bohr) occupying 0.706226 of unit cell:	Completed after 8 iterations at t[s]:  14570.03
SCF: Cycle: 79   F: -2680.479121133888839   dF: +1.120e-06   |Residual|: 2.294e-04   |deigs|: 1.506e-04  t[s]:  14572.35
	Linear fluid (dielectric constant: 78.4, screening length: 5.74355 Bohr) occupying 0.706216 of unit cell:	Completed after 5 iterations at t[s]:  14573.86
	FillingsUpdate:  mu: -0.171127293  nElectrons: 596.000000
	Linear fluid (dielectric constant: 78.4, screening length: 5.74355 Bohr) occupying 0.706207 of unit cell:	Completed after 9 iterations at t[s]:  14720.32
SCF: Cycle: 80   F: -2680.479119176156473   dF: +1.958e-06   |Residual|: 2.856e-04   |deigs|: 2.350e-04  t[s]:  14722.37
	Linear fluid (dielectric constant: 78.4, screening length: 5.74355 Bohr) occupying 0.706216 of unit cell:	Completed after 8 iterations at t[s]:  14723.97
	FillingsUpdate:  mu: -0.171331282  nElectrons: 596.000000
	Linear fluid (dielectric constant: 78.4, screening length: 5.74355 Bohr) occupying 0.706224 of unit cell:	Completed after 7 iterations at t[s]:  14851.96
SCF: Cycle: 81   F: -2680.479123257215178   dF: -4.081e-06   |Residual|: 1.247e-04   |deigs|: 2.080e-04  t[s]:  14854.24
	Linear fluid (dielectric constant: 78.4, screening length: 5.74355 Bohr) occupying 0.706216 of unit cell:	Completed after 4 iterations at t[s]:  14855.51
	FillingsUpdate:  mu: -0.171174613  nElectrons: 596.000000
	Linear fluid (dielectric constant: 78.4, screening length: 5.74355 Bohr) occupying 0.706211 of unit cell:	Completed after 8 iterations at t[s]:  14947.30
SCF: Cycle: 82   F: -2680.479120981562573   dF: +2.276e-06   |Residual|: 2.223e-04   |deigs|: 1.604e-04  t[s]:  14949.37
	Linear fluid (dielectric constant: 78.4, screening length: 5.74355 Bohr) occupying 0.706216 of unit cell:	Completed after 5 iterations at t[s]:  14950.82
	FillingsUpdate:  mu: -0.171404506  nElectrons: 596.000000
	Linear fluid (dielectric constant: 78.4, screening length: 5.74355 Bohr) occupying 0.706229 of unit cell:	Completed after 10 iterations at t[s]:  15088.09
SCF: Cycle: 83   F: -2680.479116540580890   dF: +4.441e-06   |Residual|: 3.495e-04   |deigs|: 2.350e-04  t[s]:  15090.27
	Linear fluid (dielectric constant: 78.4, screening length: 5.74355 Bohr) occupying 0.706216 of unit cell:	Completed after 8 iterations at t[s]:  15091.95
	FillingsUpdate:  mu: -0.171216291  nElectrons: 596.000000
	Linear fluid (dielectric constant: 78.4, screening length: 5.74355 Bohr) occupying 0.706213 of unit cell:	Completed after 3 iterations at t[s]:  15183.06
SCF: Cycle: 84   F: -2680.479123907406120   dF: -7.367e-06   |Residual|: 1.080e-04   |deigs|: 1.934e-04  t[s]:  15185.11
	Linear fluid (dielectric constant: 78.4, screening length: 5.74355 Bohr) occupying 0.706216 of unit cell:	Completed after 1 iterations at t[s]:  15185.99
	FillingsUpdate:  mu: -0.171269043  nElectrons: 596.000000
	Linear fluid (dielectric constant: 78.4, screening length: 5.74355 Bohr) occupying 0.706218 of unit cell:	Completed after 4 iterations at t[s]:  15277.62
SCF: Cycle: 85   F: -2680.479123215870004   dF: +6.915e-07   |Residual|: 1.571e-04   |deigs|: 5.694e-05  t[s]:  15279.56
	Linear fluid (dielectric constant: 78.4, screening length: 5.74355 Bohr) occupying 0.706216 of unit cell:	Completed after 3 iterations at t[s]:  15280.67
	FillingsUpdate:  mu: -0.171194053  nElectrons: 596.000000
	Linear fluid (dielectric constant: 78.4, screening length: 5.74355 Bohr) occupying 0.706213 of unit cell:	Completed after 8 iterations at t[s]:  15400.50
SCF: Cycle: 86   F: -2680.479121300917541   dF: +1.915e-06   |Residual|: 2.057e-04   |deigs|: 7.951e-05  t[s]:  15402.72
	Linear fluid (dielectric constant: 78.4, screening length: 5.74355 Bohr) occupying 0.706216 of unit cell:	Completed after 5 iterations at t[s]:  15404.07
	FillingsUpdate:  mu: -0.171389187  nElectrons: 596.000000
	Linear fluid (dielectric constant: 78.4, screening length: 5.74355 Bohr) occupying 0.706228 of unit cell:	Completed after 9 iterations at t[s]:  15524.37
SCF: Cycle: 87   F: -2680.479120520940342   dF: +7.800e-07   |Residual|: 2.599e-04   |deigs|: 2.000e-04  t[s]:  15526.46
	Linear fluid (dielectric constant: 78.4, screening length: 5.74355 Bohr) occupying 0.706216 of unit cell:	Completed after 8 iterations at t[s]:  15528.14
	FillingsUpdate:  mu: -0.171226051  nElectrons: 596.000000
	Linear fluid (dielectric constant: 78.4, screening length: 5.74355 Bohr) occupying 0.706214 of unit cell:	Completed after 3 iterations at t[s]:  15666.94
SCF: Cycle: 88   F: -2680.479123947357493   dF: -3.426e-06   |Residual|: 8.400e-05   |deigs|: 1.678e-04  t[s]:  15668.72
	Linear fluid (dielectric constant: 78.4, screening length: 5.74355 Bohr) occupying 0.706216 of unit cell:	Completed after 0 iterations at t[s]:  15669.38
	FillingsUpdate:  mu: -0.171253630  nElectrons: 596.000000
	Linear fluid (dielectric constant: 78.4, screening length: 5.74355 Bohr) occupying 0.706217 of unit cell:	Completed after 4 iterations at t[s]:  15760.60
SCF: Cycle: 89   F: -2680.479119202690072   dF: +4.745e-06   |Residual|: 3.947e-04   |deigs|: 4.429e-05  t[s]:  15762.47
	Linear fluid (dielectric constant: 78.4, screening length: 5.74355 Bohr) occupying 0.706216 of unit cell:	Completed after 4 iterations at t[s]:  15763.68
	FillingsUpdate:  mu: -0.171272449  nElectrons: 596.000000
	Linear fluid (dielectric constant: 78.4, screening length: 5.74355 Bohr) occupying 0.706219 of unit cell:	Completed after 3 iterations at t[s]:  15854.44
SCF: Cycle: 90   F: -2680.479122877867667   dF: -3.675e-06   |Residual|: 1.709e-04   |deigs|: 3.512e-05  t[s]:  15856.65
	Linear fluid (dielectric constant: 78.4, screening length: 5.74355 Bohr) occupying 0.706216 of unit cell:	Completed after 4 iterations at t[s]:  15857.95
	FillingsUpdate:  mu: -0.171227433  nElectrons: 596.000000
	Linear fluid (dielectric constant: 78.4, screening length: 5.74355 Bohr) occupying 0.706215 of unit cell:	Completed after 3 iterations at t[s]:  15948.92
SCF: Cycle: 91   F: -2680.479123519588484   dF: -6.417e-07   |Residual|: 1.168e-04   |deigs|: 4.765e-05  t[s]:  15951.04
	Linear fluid (dielectric constant: 78.4, screening length: 5.74355 Bohr) occupying 0.706216 of unit cell:	Completed after 3 iterations at t[s]:  15952.24
	FillingsUpdate:  mu: -0.171315036  nElectrons: 596.000000
	Linear fluid (dielectric constant: 78.4, screening length: 5.74355 Bohr) occupying 0.706222 of unit cell:	Completed after 8 iterations at t[s]:  16074.25
SCF: Cycle: 92   F: -2680.479120922332186   dF: +2.597e-06   |Residual|: 2.341e-04   |deigs|: 9.099e-05  t[s]:  16076.31
	Linear fluid (dielectric constant: 78.4, screening length: 5.74355 Bohr) occupying 0.706216 of unit cell:	Completed after 5 iterations at t[s]:  16077.65
	FillingsUpdate:  mu: -0.171131254  nElectrons: 596.000000
	Linear fluid (dielectric constant: 78.4, screening length: 5.74355 Bohr) occupying 0.706207 of unit cell:	Completed after 8 iterations at t[s]:  16179.84
SCF: Cycle: 93   F: -2680.479120716714988   dF: +2.056e-07   |Residual|: 2.318e-04   |deigs|: 1.888e-04  t[s]:  16181.85
	Linear fluid (dielectric constant: 78.4, screening length: 5.74355 Bohr) occupying 0.706216 of unit cell:	Completed after 8 iterations at t[s]:  16183.52
	FillingsUpdate:  mu: -0.171320439  nElectrons: 596.000000
	Linear fluid (dielectric constant: 78.4, screening length: 5.74355 Bohr) occupying 0.706223 of unit cell:	Completed after 3 iterations at t[s]:  16330.73
SCF: Cycle: 94   F: -2680.479123580204032   dF: -2.863e-06   |Residual|: 1.278e-04   |deigs|: 1.938e-04  t[s]:  16332.67
	Linear fluid (dielectric constant: 78.4, screening length: 5.74355 Bohr) occupying 0.706216 of unit cell:	Completed after 3 iterations at t[s]:  16333.78
	FillingsUpdate:  mu: -0.171211717  nElectrons: 596.000000
	Linear fluid (dielectric constant: 78.4, screening length: 5.74355 Bohr) occupying 0.706214 of unit cell:	Completed after 6 iterations at t[s]:  16424.76
SCF: Cycle: 95   F: -2680.479122209134403   dF: +1.371e-06   |Residual|: 1.633e-04   |deigs|: 1.117e-04  t[s]:  16427.12
	Linear fluid (dielectric constant: 78.4, screening length: 5.74355 Bohr) occupying 0.706216 of unit cell:	Completed after 3 iterations at t[s]:  16428.31
	FillingsUpdate:  mu: -0.171391572  nElectrons: 596.000000
	Linear fluid (dielectric constant: 78.4, screening length: 5.74355 Bohr) occupying 0.706228 of unit cell:	Completed after 8 iterations at t[s]:  16567.10
SCF: Cycle: 96   F: -2680.479117755933657   dF: +4.453e-06   |Residual|: 3.206e-04   |deigs|: 1.853e-04  t[s]:  16569.38
	Linear fluid (dielectric constant: 78.4, screening length: 5.74355 Bohr) occupying 0.706216 of unit cell:	Completed after 9 iterations at t[s]:  16571.29
	FillingsUpdate:  mu: -0.171225810  nElectrons: 596.000000
	Linear fluid (dielectric constant: 78.4, screening length: 5.74355 Bohr) occupying 0.706214 of unit cell:	Completed after 2 iterations at t[s]:  16660.89
SCF: Cycle: 97   F: -2680.479123945407991   dF: -6.189e-06   |Residual|: 8.879e-05   |deigs|: 1.715e-04  t[s]:  16662.89
	Linear fluid (dielectric constant: 78.4, screening length: 5.74355 Bohr) occupying 0.706216 of unit cell:	Completed after 2 iterations at t[s]:  16663.91
	FillingsUpdate:  mu: -0.171266550  nElectrons: 596.000000
	Linear fluid (dielectric constant: 78.4, screening length: 5.74355 Bohr) occupying 0.706218 of unit cell:	Completed after 3 iterations at t[s]:  16754.79
SCF: Cycle: 98   F: -2680.479123232258644   dF: +7.131e-07   |Residual|: 1.722e-04   |deigs|: 4.592e-05  t[s]:  16756.69
	Linear fluid (dielectric constant: 78.4, screening length: 5.74355 Bohr) occupying 0.706216 of unit cell:	Completed after 3 iterations at t[s]:  16757.76
	FillingsUpdate:  mu: -0.171214489  nElectrons: 596.000000
	Linear fluid (dielectric constant: 78.4, screening length: 5.74355 Bohr) occupying 0.706214 of unit cell:	Completed after 5 iterations at t[s]:  16858.56
SCF: Cycle: 99   F: -2680.479122390342582   dF: +8.419e-07   |Residual|: 1.623e-04   |deigs|: 5.731e-05  t[s]:  16860.34
	Linear fluid (dielectric constant: 78.4, screening length: 5.74355 Bohr) occupying 0.706216 of unit cell:	Completed after 5 iterations at t[s]:  16861.61
	FillingsUpdate:  mu: -0.171356347  nElectrons: 596.000000
	Linear fluid (dielectric constant: 78.4, screening length: 5.74355 Bohr) occupying 0.706225 of unit cell:	Completed after 8 iterations at t[s]:  16990.43
SCF: Cycle: 100   F: -2680.479121220023444   dF: +1.170e-06   |Residual|: 2.174e-04   |deigs|: 1.460e-04  t[s]:  16992.47
	Linear fluid (dielectric constant: 78.4, screening length: 5.74355 Bohr) occupying 0.706216 of unit cell:	Completed after 8 iterations at t[s]:  16994.25
	FillingsUpdate:  mu: -0.171231695  nElectrons: 596.000000
	Linear fluid (dielectric constant: 78.4, screening length: 5.74355 Bohr) occupying 0.706215 of unit cell:	Completed after 0 iterations at t[s]:  17093.92
SCF: Cycle: 101   F: -2680.479124164829955   dF: -2.945e-06   |Residual|: 6.512e-05   |deigs|: 1.281e-04  t[s]:  17096.35
	Linear fluid (dielectric constant: 78.4, screening length: 5.74355 Bohr) occupying 0.706216 of unit cell:	Completed after 0 iterations at t[s]:  17097.07
	FillingsUpdate:  mu: -0.171231687  nElectrons: 596.000000
	Linear fluid (dielectric constant: 78.4, screening length: 5.74355 Bohr) occupying 0.706215 of unit cell:	Completed after 0 iterations at t[s]:  17186.71
SCF: Cycle: 102   F: -2680.479124168686667   dF: -3.857e-09   |Residual|: 6.624e-05   |deigs|: 2.920e-08  t[s]:  17189.07
	Linear fluid (dielectric constant: 78.4, screening length: 5.74355 Bohr) occupying 0.706216 of unit cell:	Completed after 0 iterations at t[s]:  17189.73
	FillingsUpdate:  mu: -0.171231664  nElectrons: 596.000000
	Linear fluid (dielectric constant: 78.4, screening length: 5.74355 Bohr) occupying 0.706215 of unit cell:	Completed after 0 iterations at t[s]:  17334.69
SCF: Cycle: 103   F: -2680.479124169595252   dF: -9.086e-10   |Residual|: 6.720e-05   |deigs|: 4.852e-08  t[s]:  17336.72
SCF: Converged (|Delta E|<1.000000e-08 for 2 iters).

Single-point solvation energy estimate, DeltaF = -0.001534770497528

# Ionic positions in lattice coordinates:
ion Bi   0.375000000000001   0.659277061583945   0.657210505006790 0
ion Bi   0.875000000000001   0.659277061583945   0.657210505006790 0
ion Bi   0.125000000000001   0.340717944400414   0.342789605980253 0
ion Bi   0.625000000000001   0.340717944400414   0.342789605980253 0
ion Bi   0.375000000000001   0.301072483986115   0.411847553708424 0
ion Bi   0.875000000000001   0.301072483986115   0.411847553708424 0
ion Bi   0.125000000000001   0.698931179730543   0.588152858864090 0
ion Bi   0.625000000000001   0.698931179730543   0.588152858864090 0
ion Bi   0.375000000000001   0.077976990267745   0.382961306575626 0
ion Bi   0.875000000000001   0.077976990267745   0.382961306575626 0
ion Bi   0.125000000000001   0.922024645065113   0.617040425250383 0
ion Bi   0.625000000000001   0.922024645065113   0.617040425250383 0
ion Bi   0.375000000000001   0.974419433079402   0.550905783580324 0
ion Bi   0.875000000000001   0.974419433079402   0.550905783580324 0
ion Bi   0.125000000000001   0.025579291374776   0.449095635323685 0
ion Bi   0.625000000000001   0.025579291374776   0.449095635323685 0
ion Bi   0.375000000000001   0.199961567387887   0.578021021590321 0
ion Bi   0.875000000000001   0.199961567387887   0.578021021590321 0
ion Bi   0.125000000000001   0.800037473233163   0.421977876572631 0
ion Bi   0.625000000000001   0.800037473233163   0.421977876572631 0
ion Bi   0.375000000000001   0.754275232692878   0.489961033108346 0
ion Bi   0.875000000000001   0.754275232692878   0.489961033108346 0
ion Bi   0.125000000000001   0.245729472025270   0.510033702369402 0
ion Bi   0.625000000000001   0.245729472025270   0.510033702369402 0
ion Bi   0.375000000000001   0.525786075454492   0.466774305817052 0
ion Bi   0.875000000000001   0.525786075454492   0.466774305817052 0
ion Bi   0.125000000000001   0.474209224084776   0.533224110290303 0
ion Bi   0.625000000000001   0.474209224084776   0.533224110290303 0
ion Bi   0.125000000000001   0.563712398985152   0.367035125103621 0
ion Bi   0.625000000000001   0.563712398985152   0.367035125103621 0
ion Bi   0.375000000000001   0.436281012120547   0.632965908580814 0
ion Bi   0.875000000000001   0.436281012120547   0.632965908580814 0
ion Bi   0.125000000000001   0.385979112747197   0.701118789460922 0
ion Bi   0.625000000000001   0.385979112747197   0.701118789460922 0
ion Bi   0.375000000000001   0.614016934146848   0.298882386607767 0
ion Bi   0.875000000000001   0.614016934146848   0.298882386607767 0
ion I   0.125000000000001   0.593909268057357   0.745449596238339 0
ion I   0.625000000000001   0.593909268057357   0.745449596238339 0
ion I   0.375000000000001   0.406102267537234   0.254548721402561 0
ion I   0.875000000000001   0.406102267537234   0.254548721402561 0
ion I   0.125000000000001   0.158071797795715   0.673016264063717 0
ion I   0.625000000000001   0.158071797795715   0.673016264063717 0
ion I   0.375000000000001   0.841929134243401   0.326987484504620 0
ion I   0.875000000000001   0.841929134243401   0.326987484504620 0


# Forces in Lattice coordinates:
force Bi  -0.000000000000000   0.000292951532994  -0.029344014101110 0
force Bi   0.000000000000000   0.000292951532994  -0.029344014101110 0
force Bi   0.000000000000000  -0.000235462044358   0.029280339985380 0
force Bi   0.000000000000000  -0.000235462044358   0.029280339987199 0
force Bi   0.000000000000000  -0.013364893207590  -0.000656907258220 0
force Bi   0.000000000000000  -0.013364893207590  -0.000656907258221 0
force Bi   0.000000000000000   0.013278538687225   0.000588430247452 0
force Bi   0.000000000000000   0.013278538687225   0.000588430247452 0
force Bi   0.000000000000000  -0.009412059706555  -0.029812062283812 0
force Bi   0.000000000000000  -0.009412059706555  -0.029812062283812 0
force Bi   0.000000000000000   0.009496269237225   0.030157400055494 0
force Bi   0.000000000000000   0.009496269237225   0.030157400055948 0
force Bi   0.000000000000000   0.009970312728876  -0.012318626731725 0
force Bi  -0.000000000000000   0.009970312728876  -0.012318626731724 0
force Bi   0.000000000000000  -0.009942550673365   0.012219938749338 0
force Bi   0.000000000000000  -0.009942550673364   0.012219938749338 0
force Bi   0.000000000000000  -0.003732028660743   0.011513387473055 0
force Bi   0.000000000000000  -0.003732028660743   0.011513387473055 0
force Bi   0.000000000000000   0.003784154052948  -0.011652134259338 0
force Bi   0.000000000000000   0.003784154052948  -0.011652134259338 0
force Bi   0.000000000000000  -0.018984686399039  -0.012042911211807 0
force Bi   0.000000000000000  -0.018984686399039  -0.012042911211835 0
force Bi   0.000000000000000   0.018778560120195   0.012676029560475 0
force Bi   0.000000000000000   0.018778560120167   0.012676029560474 0
force Bi   0.000000000000000   0.021525227745763  -0.031672118326303 0
force Bi   0.000000000000000   0.021525227745765  -0.031672118326302 0
force Bi   0.000000000000000  -0.021292892071921   0.031825032598387 0
force Bi   0.000000000000000  -0.021292892071921   0.031825032598387 0
force Bi   0.000000000000000   0.018033061470241   0.003474825008011 0
force Bi   0.000000000000000   0.018033061470241   0.003474825008466 0
force Bi   0.000000000000000  -0.018033155883330  -0.003581769734819 0
force Bi   0.000000000000000  -0.018033155883316  -0.003581769734819 0
force Bi   0.000000000000000  -0.036933130366624   0.002125987031857 0
force Bi   0.000000000000000  -0.036933130366624   0.002125987031858 0
force Bi  -0.000000000000000   0.036801303851016  -0.001571398963218 0
force Bi   0.000000000000000   0.036801303851016  -0.001571398963218 0
force I   0.000000000000000   0.025132581360918   0.049852098096606 0
force I   0.000000000000000   0.025132581360918   0.049852098096151 0
force I  -0.000000000000000  -0.025329538433964  -0.050193335338064 0
force I   0.000000000000000  -0.025329538433964  -0.050193335338064 0
force I   0.000000000000000   0.005347168643153  -0.027842204861203 0
force I   0.000000000000000   0.005347168643152  -0.027842204861203 0
force I  -0.000000000000000  -0.005407132989955   0.028129987508471 0
force I   0.000000000000000  -0.005407132989940   0.028129987508471 0

# Energy components:
   A_diel =       -0.0058978434860981
   Eewald =    28956.3125818214502942
       EH =    31304.0826313699290040
     Eloc =   -63628.8272518462181324
      Enl =      847.7313103377846346
      Exc =    -1356.4167552378839900
 Exc_core =      917.1579808600694150
       KE =      279.5257319467409616
-------------------------------------
     Etot =    -2680.4396685916140086
       TS =        0.0394555779813477
-------------------------------------
        F =    -2680.4791241695952522

IonicMinimize: Iter:   0  F: -2680.479124169595252  |grad|_K:  0.000e+00  t[s]:  17352.40
IonicMinimize: Converged (|grad|_K<1.000000e-04).

#--- Lowdin population analysis ---
# oxidation-state Bi +0.225 +0.225 +0.225 +0.225 -0.034 -0.034 -0.034 -0.034 +0.144 +0.144 +0.144 +0.144 +0.043 +0.043 +0.043 +0.043 +0.182 +0.182 +0.182 +0.182 +0.004 +0.004 +0.004 +0.004 +0.064 +0.064 +0.064 +0.064 +0.010 +0.010 +0.010 +0.010 +0.348 +0.348 +0.348 +0.348
# oxidation-state I -0.319 -0.319 -0.319 -0.319 -0.336 -0.336 -0.336 -0.336


Dumping 'NbTe2.fillings' ... done
Dumping 'NbTe2.wfns' ... done
Dumping 'NbTe2.fluidState' ... done
Dumping 'NbTe2.eigenvals' ... done
End date and time: Mon Jul  6 09:57:00 2020  (Duration: 0-4:49:34.50)
Done!
