
*************** JDFTx 1.5.0  ***************

Start date and time: Thu Apr 15 17:15:26 2021
Executable jdftx_gpu with command-line: -i Charged.in -o Charged.out
Running on hosts (process indices):  amax (0-6)
Divided in process groups (process indices):  0 (0)  1 (1)  2 (2)  3 (3)  4 (4)  5 (5)  6 (6)
gpuInit: Found compatible cuda device 0 'Tesla K80'
gpuInit: Found compatible cuda device 1 'Tesla K80'
gpuInit: Found compatible cuda device 2 'Tesla K80'
gpuInit: Found compatible cuda device 3 'Tesla K80'
gpuInit: Found compatible cuda device 4 'Tesla K80'
gpuInit: Found compatible cuda device 5 'Tesla K80'
gpuInit: Found compatible cuda device 6 'Tesla K80'
gpuInit: Selected device 0
Resource initialization completed at t[s]:      3.64
Run totals: 7 processes, 24 threads, 7 GPUs


Input parsed successfully to the following command list (including defaults):

basis kpoint-dependent
cache-projectors no
coords-type Lattice
core-overlap-check none
coulomb-interaction Slab 001
coulomb-truncation-embed 0.5 0.5 0.5
davidson-band-ratio 1.1
dump End State
dump-name NbTe2.$VAR
elec-cutoff 20
elec-eigen-algo Davidson
elec-ex-corr gga-PBE
elec-initial-charge 0.500000
elec-smearing Gauss 0.0073499
electronic-minimize  \
	dirUpdateScheme      FletcherReeves \
	linminMethod         DirUpdateRecommended \
	nIterations          200 \
	history              15 \
	knormThreshold       0 \
	energyDiffThreshold  1e-08 \
	nEnergyDiff          2 \
	alphaTstart          1 \
	alphaTmin            1e-10 \
	updateTestStepSize   yes \
	alphaTreduceFactor   0.1 \
	alphaTincreaseFactor 3 \
	nAlphaAdjustMax      3 \
	wolfeEnergy          0.0001 \
	wolfeGradient        0.9 \
	fdTest               no
exchange-regularization WignerSeitzTruncated
fluid LinearPCM 298.000000 1.013250
fluid-anion F- 1 MeanFieldLJ \
	epsBulk 1 \
	pMol 0 \
	epsInf 1 \
	Pvap 0 \
	sigmaBulk 0 \
	Rvdw 2.24877 \
	Res 0 \
	tauNuc 343133
fluid-cation Na+ 1 MeanFieldLJ \
	epsBulk 1 \
	pMol 0 \
	epsInf 1 \
	Pvap 0 \
	sigmaBulk 0 \
	Rvdw 2.19208 \
	Res 0 \
	tauNuc 343133
fluid-ex-corr lda-TF lda-PZ
fluid-gummel-loop 10 1.000000e-05
fluid-minimize  \
	dirUpdateScheme      PolakRibiere \
	linminMethod         DirUpdateRecommended \
	nIterations          400 \
	history              15 \
	knormThreshold       1e-11 \
	energyDiffThreshold  0 \
	nEnergyDiff          2 \
	alphaTstart          1 \
	alphaTmin            1e-10 \
	updateTestStepSize   yes \
	alphaTreduceFactor   0.1 \
	alphaTincreaseFactor 3 \
	nAlphaAdjustMax      6 \
	wolfeEnergy          0.0001 \
	wolfeGradient        0.9 \
	fdTest               no
fluid-solvent H2O 55.338 ScalarEOS \
	epsBulk 78.4 \
	pMol 0.92466 \
	epsInf 1.77 \
	Pvap 1.06736e-10 \
	sigmaBulk 4.62e-05 \
	Rvdw 2.61727 \
	Res 1.42 \
	tauNuc 343133 \
	poleEl 15 7 1
forces-output-coords Positions
initial-state NbTe2.$VAR
ion V   0.166666658916667   0.083333325633333   0.561660652738666 1
ion V   0.083333325583333   0.166666658966667   0.438323318461334 1
ion V   0.416666658916667   0.083333325633333   0.561660652738666 1
ion V   0.333333325583333   0.166666658966667   0.438323318461334 1
ion V   0.666666658916667   0.083333325633333   0.561660652738666 1
ion V   0.583333325583333   0.166666658966667   0.438323318461334 1
ion V   0.916666658916667   0.083333325633333   0.561660652738666 1
ion V   0.833333325583333   0.166666658966667   0.438323318461334 1
ion V   0.166666658916667   0.333333325633333   0.561660652738666 1
ion V   0.083333325583333   0.416666658966667   0.438323318461334 1
ion V   0.416666658916667   0.333333325633333   0.561660652738666 1
ion V   0.333333325583333   0.416666658966667   0.438323318461334 1
ion V   0.666666658916667   0.333333325633333   0.561660652738666 1
ion V   0.583333325583333   0.416666658966667   0.438323318461334 1
ion V   0.916666658916667   0.333333325633333   0.561660652738666 1
ion V   0.833333325583333   0.416666658966667   0.438323318461334 1
ion V   0.166666658916667   0.583333325633333   0.561660652738666 1
ion V   0.083333325583333   0.666666658966667   0.438323318461334 1
ion V   0.416666658916667   0.583333325633333   0.561660652738666 1
ion V   0.333333325583333   0.666666658966667   0.438323318461334 1
ion V   0.666666658916667   0.583333325633333   0.561660652738666 1
ion V   0.583333325583333   0.666666658966667   0.438323318461334 1
ion V   0.916666658916667   0.583333325633333   0.561660652738666 1
ion V   0.833333325583333   0.666666658966667   0.438323318461334 1
ion V   0.166666658916667   0.833333325633333   0.561660652738666 1
ion V   0.083333325583333   0.916666658966667   0.438323318461334 1
ion V   0.416666658916667   0.833333325633333   0.561660652738666 1
ion V   0.333333325583333   0.916666658966667   0.438323318461334 1
ion V   0.666666658916667   0.833333325633333   0.561660652738666 1
ion V   0.583333325583333   0.916666658966667   0.438323318461334 1
ion V   0.916666658916667   0.833333325633333   0.561660652738666 1
ion V   0.833333325583333   0.916666658966667   0.438323318461334 1
ion C  -0.000000007750000  -0.000000007700000   0.499991985600000 1
ion C   0.249999992250000  -0.000000007700000   0.499991985600000 1
ion C   0.499999992250000  -0.000000007700000   0.499991985600000 1
ion C   0.749999992250000  -0.000000007700000   0.499991985600000 1
ion C  -0.000000007750000   0.249999992300000   0.499991985600000 1
ion C   0.249999992250000   0.249999992300000   0.499991985600000 1
ion C   0.499999992250000   0.249999992300000   0.499991985600000 1
ion C   0.749999992250000   0.249999992300000   0.499991985600000 1
ion C  -0.000000007750000   0.499999992300000   0.499991985600000 1
ion C   0.249999992250000   0.499999992300000   0.499991985600000 1
ion C   0.499999992250000   0.499999992300000   0.499991985600000 1
ion C   0.749999992250000   0.499999992300000   0.499991985600000 1
ion C  -0.000000007750000   0.749999992300000   0.499991985600000 1
ion C   0.249999992250000   0.749999992300000   0.499991985600000 1
ion C   0.499999992250000   0.749999992300000   0.499991985600000 1
ion C   0.749999992250000   0.749999992300000   0.499991985600000 1
ion O   0.083333325583333   0.166666658966667   0.614324423076145 1
ion O   0.166666658916667   0.083333325633333   0.385659548123855 1
ion O   0.333333325583333   0.166666658966667   0.614324423076145 1
ion O   0.416666658916667   0.083333325633333   0.385659548123855 1
ion O   0.583333325583333   0.166666658966667   0.614324423076145 1
ion O   0.666666658916667   0.083333325633333   0.385659548123855 1
ion O   0.833333325583333   0.166666658966667   0.614324423076145 1
ion O   0.916666658916667   0.083333325633333   0.385659548123855 1
ion O   0.083333325583333   0.416666658966667   0.614324423076145 1
ion O   0.166666658916667   0.333333325633333   0.385659548123855 1
ion O   0.333333325583333   0.416666658966667   0.614324423076145 1
ion O   0.416666658916667   0.333333325633333   0.385659548123855 1
ion O   0.583333325583333   0.416666658966667   0.614324423076145 1
ion O   0.666666658916667   0.333333325633333   0.385659548123855 1
ion O   0.833333325583333   0.416666658966667   0.614324423076145 1
ion O   0.916666658916667   0.333333325633333   0.385659548123855 1
ion O   0.083333325583333   0.666666658966667   0.614324423076145 1
ion O   0.166666658916667   0.583333325633333   0.385659548123855 1
ion O   0.333333325583333   0.666666658966667   0.614324423076145 1
ion O   0.416666658916667   0.583333325633333   0.385659548123855 1
ion O   0.583333325583333   0.666666658966667   0.614324423076145 1
ion O   0.666666658916667   0.583333325633333   0.385659548123855 1
ion O   0.833333325583333   0.666666658966667   0.614324423076145 1
ion O   0.916666658916667   0.583333325633333   0.385659548123855 1
ion O   0.083333325583333   0.916666658966667   0.614324423076145 1
ion O   0.166666658916667   0.833333325633333   0.385659548123855 1
ion O   0.333333325583333   0.916666658966667   0.614324423076145 1
ion O   0.416666658916667   0.833333325633333   0.385659548123855 1
ion O   0.583333325583333   0.916666658966667   0.614324423076145 1
ion O   0.666666658916667   0.833333325633333   0.385659548123855 1
ion O   0.833333325583333   0.916666658966667   0.614324423076145 1
ion O   0.916666658916667   0.833333325633333   0.385659548123855 1
ion-species GBRV/$ID_pbe.uspp
ion-width Ecut
ionic-minimize  \
	dirUpdateScheme      L-BFGS \
	linminMethod         DirUpdateRecommended \
	nIterations          500 \
	history              15 \
	knormThreshold       0.0001 \
	energyDiffThreshold  1e-06 \
	nEnergyDiff          2 \
	alphaTstart          1 \
	alphaTmin            1e-10 \
	updateTestStepSize   yes \
	alphaTreduceFactor   0.1 \
	alphaTincreaseFactor 3 \
	nAlphaAdjustMax      3 \
	wolfeEnergy          0.0001 \
	wolfeGradient        0.9 \
	fdTest               no
kpoint   0.000000000000   0.000000000000   0.000000000000  1.00000000000000
kpoint-folding 3 3 1 
latt-move-scale 1 1 1
latt-scale 1.88973 1.88973 1.88973 
lattice Triclinic 11.4836 11.4836 19.4677 90 90 120
lattice-minimize  \
	dirUpdateScheme      L-BFGS \
	linminMethod         DirUpdateRecommended \
	nIterations          0 \
	history              15 \
	knormThreshold       0 \
	energyDiffThreshold  1e-06 \
	nEnergyDiff          2 \
	alphaTstart          1 \
	alphaTmin            1e-10 \
	updateTestStepSize   yes \
	alphaTreduceFactor   0.1 \
	alphaTincreaseFactor 3 \
	nAlphaAdjustMax      3 \
	wolfeEnergy          0.0001 \
	wolfeGradient        0.9 \
	fdTest               no
lcao-params -1 1e-06 0.0073499
pcm-variant CANDLE
spintype no-spin
subspace-rotation-factor 1 yes
symmetries automatic
symmetry-threshold 0.0005



---------- Setting up symmetries ----------

Found 24 point-group symmetries of the bravais lattice
Found 192 space-group symmetries with basis
Applied RMS atom displacement 1.11271e-14 bohrs to make symmetries exact.

---------- Initializing the Grid ----------
R = 
[    21.7009   -10.8504          0  ]
[          0    18.7935          0  ]
[          0          0    36.7886  ]
unit cell volume = 15003.7
G =
[   0.289536   0.167163         -0  ]
[          0   0.334327          0  ]
[          0         -0   0.170792  ]
Minimum fftbox size, Smin = [  88  88  152  ]
Chosen fftbox size, S = [  90  90  160  ]

---------- Exchange Correlation functional ----------
Initalized PBE GGA exchange.
Initalized PBE GGA correlation.

---------- Setting up pseudopotentials ----------
Width of ionic core gaussian charges (only for fluid interactions / plotting) set to 0.397384

Reading pseudopotential file '/home/guoxy/vasp/jdftx-1.5.0/build/pseudopotentials/GBRV/v_pbe.uspp':
  Title: V.  Created by USPP 7.3.6 on 31-3-15
  Reference state energy: -72.228583.  13 valence electrons in orbitals:
    |300>  occupation: 2  eigenvalue: -2.581040
    |310>  occupation: 6  eigenvalue: -1.618497
    |400>  occupation: 2  eigenvalue: -0.172800
    |320>  occupation: 3  eigenvalue: -0.189802
  lMax: 2  lLocal: 3  QijEcut: 6
  6 projectors sampled on a log grid with 593 points:
    l: 0  eig: -2.581041  rCut: 1.5
    l: 0  eig: -0.172801  rCut: 1.5
    l: 1  eig: -1.618497  rCut: 1.6
    l: 1  eig: 0.150000  rCut: 1.6
    l: 2  eig: -0.189802  rCut: 1.7
    l: 2  eig: 0.150000  rCut: 1.7
  Partial core density with radius 0.8
  Transforming core density to a uniform radial grid of dG=0.02 with 1477 points.
  Transforming local potential to a uniform radial grid of dG=0.02 with 1477 points.
  Transforming nonlocal projectors to a uniform radial grid of dG=0.02 with 432 points.
  Transforming density augmentations to a uniform radial grid of dG=0.02 with 1477 points.
  Transforming atomic orbitals to a uniform radial grid of dG=0.02 with 432 points.
  Core radius for overlap checks: 1.80 bohrs.

Reading pseudopotential file '/home/guoxy/vasp/jdftx-1.5.0/build/pseudopotentials/GBRV/c_pbe.uspp':
  Title: C.  Created by USPP 7.3.6 on 3-2-2014
  Reference state energy: -5.406344.  4 valence electrons in orbitals:
    |200>  occupation: 2  eigenvalue: -0.504890
    |210>  occupation: 2  eigenvalue: -0.194356
  lMax: 1  lLocal: 2  QijEcut: 5
  4 projectors sampled on a log grid with 503 points:
    l: 0  eig: -0.504890  rCut: 1.3
    l: 0  eig: 0.000000  rCut: 1.3
    l: 1  eig: -0.194357  rCut: 1.3
    l: 1  eig: 0.000000  rCut: 1.3
  Partial core density with radius 1.1
  Transforming core density to a uniform radial grid of dG=0.02 with 1477 points.
  Transforming local potential to a uniform radial grid of dG=0.02 with 1477 points.
  Transforming nonlocal projectors to a uniform radial grid of dG=0.02 with 432 points.
  Transforming density augmentations to a uniform radial grid of dG=0.02 with 1477 points.
  Transforming atomic orbitals to a uniform radial grid of dG=0.02 with 432 points.
  Core radius for overlap checks: 1.30 bohrs.

Reading pseudopotential file '/home/guoxy/vasp/jdftx-1.5.0/build/pseudopotentials/GBRV/o_pbe.uspp':
  Title: O.  Created by USPP 7.3.6 on 3-2-2014
  Reference state energy: -15.894388.  6 valence electrons in orbitals:
    |200>  occupation: 2  eigenvalue: -0.878823
    |210>  occupation: 4  eigenvalue: -0.332131
  lMax: 2  lLocal: 2  QijEcut: 6
  5 projectors sampled on a log grid with 511 points:
    l: 0  eig: -0.878823  rCut: 1.25
    l: 0  eig: 0.000000  rCut: 1.25
    l: 1  eig: -0.332132  rCut: 1.25
    l: 1  eig: 0.000000  rCut: 1.25
    l: 2  eig: 1.000000  rCut: 1.25
  Partial core density with radius 0.7
  Transforming core density to a uniform radial grid of dG=0.02 with 1477 points.
  Transforming local potential to a uniform radial grid of dG=0.02 with 1477 points.
  Transforming nonlocal projectors to a uniform radial grid of dG=0.02 with 432 points.
  Transforming density augmentations to a uniform radial grid of dG=0.02 with 1477 points.
  Transforming atomic orbitals to a uniform radial grid of dG=0.02 with 432 points.
  Core radius for overlap checks: 1.25 bohrs.

Initialized 3 species with 80 total atoms.

Folded 1 k-points by 3x3x1 to 9 k-points.

---------- Setting up k-points, bands, fillings ----------
Reduced to 3 k-points under symmetry. 
Computing the number of bands and number of electrons
Calculating initial fillings.
nElectrons: 672.500000   nBands: 512   nStates: 3

----- Setting up reduced wavefunction bases (one per k-point) -----
average nbasis = 64091.000 , ideal nbasis = 64096.946

---------- Setting up coulomb interaction ----------
Fluid mode embedding: using embedded box, but periodic Coulomb kernel.
(Fluid response is responsible for (approximate) separation between periodic images.)
Setting up double-sized grid for truncated Coulomb potentials:
R = 
[    21.7009   -10.8504          0  ]
[          0    18.7935          0  ]
[          0          0    73.5772  ]
unit cell volume = 30007.4
G =
[   0.289536   0.167163         -0  ]
[          0   0.334327          0  ]
[          0         -0  0.0853958  ]
Chosen fftbox size, S = [  90  90  320  ]
Integer grid location selected as the embedding center:
   Grid: [  45  45  80  ]
   Lattice: [  0.5  0.5  0.5  ]
   Cartesian: [  5.42523  9.39676  18.3943  ]
Constructing Wigner-Seitz cell: 8 faces (6 quadrilaterals, 2 hexagons)
Range-separation parameter for embedded mesh potentials due to point charges: 0.61948 bohrs.

Initializing van der Waals corrections
	NOTE: vdW corrections apply only for interactions with fluid.
	 V:  C6:  187.33 Eh-a0^6  R0: 2.952 a0
	 C:  C6:   30.35 Eh-a0^6  R0: 2.744 a0
	 O:  C6:   12.14 Eh-a0^6  R0: 2.536 a0

---------- Setting up ewald sum ----------
Optimum gaussian width for ewald sums = 5.972248 bohr.
Real space sum over 605 unit cells with max indices [  5  5  2  ]
Reciprocal space sum over 9225 terms with max indices [  7  7  20  ]

---------- Allocating electronic variables ----------
Initializing wave functions:  linear combination of atomic orbitals
V pseudo-atom occupations:   s ( 2 0 )  p ( 6 )  d ( 5 )
C pseudo-atom occupations:   s ( 2 )  p ( 2 )
O pseudo-atom occupations:   s ( 2 )  p ( 4 )
	FillingsUpdate:  mu: +3.825670970  nElectrons: 672.500000
LCAOMinimize: Iter:   0  F: -2370.0176726090244301  |grad|_K:  4.061e-02  alpha:  1.000e+00
	FillingsUpdate:  mu: -2.165576629  nElectrons: 672.500000
LCAOMinimize: Iter:   1  F: -2752.0414439371606932  |grad|_K:  1.767e-02  alpha:  6.153e-01  linmin:  4.798e-02  cgtest: -2.107e+00  t[s]:     60.22
LCAOMinimize: 	Bad step direction: g.d > 0.
LCAOMinimize: 	Undoing step.
LCAOMinimize: 	Step failed: resetting search direction.
	FillingsUpdate:  mu: -2.165576629  nElectrons: 672.500000
LCAOMinimize: Iter:   2  F: -2752.0414439371606932  |grad|_K:  1.767e-02  alpha:  0.000e+00
	FillingsUpdate:  mu: -1.806084506  nElectrons: 672.500000
LCAOMinimize: Iter:   3  F: -2785.7427346298372868  |grad|_K:  1.590e-02  alpha:  1.306e-01  linmin: -8.062e-02  cgtest:  8.164e-01  t[s]:     86.54
LCAOMinimize: 	Predicted alpha/alphaT>3.000000, increasing alphaT to 3.918378e-01.
LCAOMinimize: 	Wrong curvature in test step, increasing alphaT to 1.175513e+00.
	FillingsUpdate:  mu: -0.506698325  nElectrons: 672.500000
LCAOMinimize: Iter:   4  F: -2885.7347749948116871  |grad|_K:  9.215e-03  alpha: -1.217e+00  linmin: -2.369e-01  cgtest:  2.171e-01  t[s]:    106.31
	FillingsUpdate:  mu: -0.306982712  nElectrons: 672.500000
LCAOMinimize: Iter:   5  F: -2895.3430934828693353  |grad|_K:  7.233e-03  alpha:  7.147e-02  linmin: -3.025e-01  cgtest:  6.995e-01  t[s]:    122.05
LCAOMinimize: 	Predicted alpha/alphaT>3.000000, increasing alphaT to 2.144027e-01.
	FillingsUpdate:  mu: -0.135967301  nElectrons: 672.500000
LCAOMinimize: Iter:   6  F: -2899.6588108223440940  |grad|_K:  3.047e-03  alpha:  1.037e-01  linmin: -3.274e-01  cgtest:  7.592e-01  t[s]:    142.39
LCAOMinimize: Encountered beta<0, resetting CG.
	FillingsUpdate:  mu: -0.003428911  nElectrons: 672.500000
LCAOMinimize: Iter:   7  F: -2900.2880834989969117  |grad|_K:  1.718e-03  alpha:  1.998e-01  linmin:  1.787e-01  cgtest: -3.464e-01  t[s]:    157.95
	FillingsUpdate:  mu: -0.016610976  nElectrons: 672.500000
LCAOMinimize: Iter:   8  F: -2900.3849774600598721  |grad|_K:  1.538e-03  alpha:  1.636e-01  linmin:  3.283e-04  cgtest:  8.055e-01  t[s]:    173.31
	FillingsUpdate:  mu: -0.070366767  nElectrons: 672.500000
LCAOMinimize: Iter:   9  F: -2900.5116828013115082  |grad|_K:  5.376e-04  alpha:  1.374e-01  linmin: -2.516e-02  cgtest:  1.134e-02  t[s]:    188.82
	FillingsUpdate:  mu: -0.058677943  nElectrons: 672.500000
LCAOMinimize: Iter:  10  F: -2900.5408039683406969  |grad|_K:  2.646e-04  alpha:  2.513e-01  linmin:  7.264e-03  cgtest: -3.774e-02  t[s]:    204.13
	FillingsUpdate:  mu: -0.058562712  nElectrons: 672.500000
LCAOMinimize: Iter:  11  F: -2900.5529037657515801  |grad|_K:  4.989e-05  alpha:  4.417e-01  linmin: -2.656e-03  cgtest:  1.755e-01  t[s]:    219.40
	FillingsUpdate:  mu: -0.060466026  nElectrons: 672.500000
LCAOMinimize: Iter:  12  F: -2900.5530590507314628  |grad|_K:  2.893e-05  alpha:  1.585e-01  linmin:  1.552e-03  cgtest: -5.552e-03  t[s]:    234.56
LCAOMinimize: 	Predicted alpha/alphaT>3.000000, increasing alphaT to 4.755432e-01.
	FillingsUpdate:  mu: -0.059427657  nElectrons: 672.500000
LCAOMinimize: Iter:  13  F: -2900.5532553902080508  |grad|_K:  6.277e-06  alpha:  5.959e-01  linmin:  1.535e-03  cgtest:  2.115e-02  t[s]:    254.90
	FillingsUpdate:  mu: -0.059419889  nElectrons: 672.500000
LCAOMinimize: Iter:  14  F: -2900.5532595047257018  |grad|_K:  2.871e-06  alpha:  2.649e-01  linmin: -1.035e-04  cgtest:  2.993e-03  t[s]:    269.91
	FillingsUpdate:  mu: -0.059504122  nElectrons: 672.500000
LCAOMinimize: Iter:  15  F: -2900.5532611640096547  |grad|_K:  1.220e-06  alpha:  5.098e-01  linmin:  3.618e-05  cgtest: -1.542e-03  t[s]:    285.43
	FillingsUpdate:  mu: -0.059463805  nElectrons: 672.500000
LCAOMinimize: Iter:  16  F: -2900.5532612342731227  |grad|_K:  1.559e-07  alpha:  1.196e-01  linmin: -5.732e-04  cgtest:  2.430e-03  t[s]:    300.63
LCAOMinimize: 	Predicted alpha/alphaT>3.000000, increasing alphaT to 3.588546e-01.
	FillingsUpdate:  mu: -0.059468168  nElectrons: 672.500000
LCAOMinimize: Iter:  17  F: -2900.5532612422643979  |grad|_K:  3.703e-08  alpha:  8.401e-01  linmin:  7.772e-03  cgtest: -3.751e-02  t[s]:    321.06
LCAOMinimize: Converged (|Delta F|<1.000000e-06 for 2 iters).
----- createFluidSolver() ----- (Fluid-side solver setup)
   Initializing fluid molecule 'H2O'
     Initializing site 'O'
       Electron density: proportional to exp(-r/0.36935)*erfc((r-0.51523)/0.36823) with norm 6.826
       Charge density: gaussian nuclear width 0.478731 with net site charge 0.826
       Polarizability: cuspless exponential with width 0.32 and norm 3.73
       Hard sphere radius: 2.57003 bohrs
       Positions in reference frame:
         [ +0.000000 +0.000000 +0.000000 ]
     Initializing site 'H'
       Electron density: proportional to exp(-r/0.34641)*erfc((r-0)/0.390882) with norm 0.587
       Charge density: gaussian nuclear width 0.377945 with net site charge -0.413
       Polarizability: cuspless exponential with width 0.39 and norm 3.3
       Positions in reference frame:
         [ +0.000000 -1.441945 +1.122523 ]
         [ +0.000000 +1.441945 +1.122523 ]
     Net charge: 0   dipole magnitude: 0.927204
     Initializing spherical shell mfKernel with radius 2.61727 Bohr
     deltaS corrections:
       site 'O': -7.54299
       site 'H': -6.83917
   Initializing fluid molecule 'Na+'
     Initializing site 'Na'
       Electron density: proportional to exp(-r/0.19682)*erfc((r-0.71491)/0.41314) with norm 8.1383
       Charge density: gaussian nuclear width 0.365347 with net site charge -1
       Hard sphere radius: 1.86327 bohrs
       Positions in reference frame:
         [ +0.000000 +0.000000 +0.000000 ]
     Net charge: -1   dipole magnitude: 0
     Initializing gaussian mfKernel with width: 1.55004 Bohr
     deltaS corrections:
       site 'Na': -22.3555
   Initializing fluid molecule 'F-'
     Initializing site 'F'
       Electron density: proportional to exp(-r/0.38886)*erfc((r-0)/0.438782) with norm 8
       Charge density: gaussian nuclear width 0.374796 with net site charge 1
       Hard sphere radius: 2.39995 bohrs
       Positions in reference frame:
         [ +0.000000 +0.000000 +0.000000 ]
     Net charge: 1   dipole magnitude: 0
     Initializing gaussian mfKernel with width: 1.59012 Bohr
     deltaS corrections:
       site 'F': -9.04335

Correction to mu due to finite nuclear width = -0.0222198
   Cavity determined by nc: 0.00142 and sigma: 0.707107
   Nonlocal vdW cavity from gaussian model electron density with norm = 8 and sigma = 0.993594 bohr
   Charge asymmetry in cavity with sensitivity pCavity = 36.5 e-bohr/Eh
   Electrostatic cavity expanded by eta = 1.46 bohrs
   Weighted density cavitation model constrained by Nbulk: 0.0049383 bohr^-3, Pvap: 3.14029 kPa, Rvdw: 2.61727 bohr and sigmaBulk: 4.62e-05 Eh/bohr^2 at T: 298 K.
   Weighted density dispersion model using vdW pair potentials with single solvent site with sqrtC6eff: 0.77 SI.


---- Citations for features of the code used in this run ----

   Software package:
      R. Sundararaman, K. Letchworth-Weaver, K.A. Schwarz, D. Gunceler, Y. Ozhabes and T.A. Arias, 'JDFTx: software for joint density-functional theory', SoftwareX 6, 278 (2017)

   gga-PBE exchange-correlation functional:
      J.P. Perdew, K. Burke and M. Ernzerhof, Phys. Rev. Lett. 77, 3865 (1996)

   Pseudopotentials:
      KF Garrity, JW Bennett, KM Rabe and D Vanderbilt, Comput. Mater. Sci. 81, 446 (2014)

   Truncated Coulomb potentials:
      R. Sundararaman and T.A. Arias, Phys. Rev. B 87, 165122 (2013)

   Van der Waals correction pair-potentials:
      S. Grimme, J. Comput. Chem. 27, 1787 (2006)

   Charge-asymmetric nonlocally-determined local-electric (CANDLE) solvation model:
      R. Sundararaman and W.A. Goddard III, J. Chem. Phys. 142, 064107 (2015)

   Total energy minimization with Auxiliary Hamiltonian:
      C. Freysoldt, S. Boeck, and J. Neugebauer, Phys. Rev. B 79, 241103(R) (2009)

This list may not be complete. Please suggest additional citations or
report any other bugs at https://github.com/shankar1729/jdftx/issues

Initialization completed successfully at t[s]:    325.30

Fluid solver invoked on fresh (partially random / LCAO) wavefunctions
Running a vacuum solve first:

-------- Initial electronic minimization -----------
	FillingsUpdate:  mu: -0.059468168  nElectrons: 672.500000
ElecMinimize: Iter:   0  F: -2900.553261242269855  |grad|_K:  2.067e-04  alpha:  1.000e+00
	FillingsUpdate:  mu: -0.018130181  nElectrons: 672.500000
	SubspaceRotationAdjust: set factor to 0.941
ElecMinimize: Iter:   1  F: -2902.520662049251769  |grad|_K:  1.413e-04  alpha:  4.649e-01  linmin:  7.036e-07  t[s]:    361.12
	FillingsUpdate:  mu: -0.107497741  nElectrons: 672.500000
	SubspaceRotationAdjust: set factor to 0.584
ElecMinimize: Iter:   2  F: -2902.992686736613450  |grad|_K:  1.003e-04  alpha:  2.680e-01  linmin:  1.646e-05  t[s]:    383.03
	FillingsUpdate:  mu: -0.050531696  nElectrons: 672.500000
	SubspaceRotationAdjust: set factor to 0.605
ElecMinimize: Iter:   3  F: -2903.245691391049604  |grad|_K:  4.121e-05  alpha:  2.610e-01  linmin:  3.558e-06  t[s]:    404.06
	FillingsUpdate:  mu: -0.050736520  nElectrons: 672.500000
	SubspaceRotationAdjust: set factor to 0.575
ElecMinimize: Iter:   4  F: -2903.326224854285101  |grad|_K:  2.392e-05  alpha:  4.834e-01  linmin:  4.919e-06  t[s]:    425.47
	FillingsUpdate:  mu: -0.061196613  nElectrons: 672.500000
	SubspaceRotationAdjust: set factor to 0.533
ElecMinimize: Iter:   5  F: -2903.349203068974475  |grad|_K:  1.253e-05  alpha:  4.080e-01  linmin:  3.126e-06  t[s]:    446.50
	FillingsUpdate:  mu: -0.054507583  nElectrons: 672.500000
	SubspaceRotationAdjust: set factor to 0.505
ElecMinimize: Iter:   6  F: -2903.355534023936798  |grad|_K:  8.303e-06  alpha:  4.088e-01  linmin:  2.349e-05  t[s]:    467.88
	FillingsUpdate:  mu: -0.056736291  nElectrons: 672.500000
	SubspaceRotationAdjust: set factor to 0.541
ElecMinimize: Iter:   7  F: -2903.358205449320849  |grad|_K:  4.650e-06  alpha:  3.937e-01  linmin:  2.649e-06  t[s]:    489.35
	FillingsUpdate:  mu: -0.057129723  nElectrons: 672.500000
	SubspaceRotationAdjust: set factor to 0.633
ElecMinimize: Iter:   8  F: -2903.359411561100842  |grad|_K:  2.955e-06  alpha:  5.671e-01  linmin:  6.103e-06  t[s]:    510.75
	FillingsUpdate:  mu: -0.056781953  nElectrons: 672.500000
	SubspaceRotationAdjust: set factor to 0.715
ElecMinimize: Iter:   9  F: -2903.359758107525067  |grad|_K:  2.016e-06  alpha:  4.036e-01  linmin:  3.259e-07  t[s]:    532.32
	FillingsUpdate:  mu: -0.057399795  nElectrons: 672.500000
	SubspaceRotationAdjust: set factor to 0.761
ElecMinimize: Iter:  10  F: -2903.359919838906535  |grad|_K:  1.199e-06  alpha:  4.029e-01  linmin:  2.563e-06  t[s]:    553.32
	FillingsUpdate:  mu: -0.056866497  nElectrons: 672.500000
	SubspaceRotationAdjust: set factor to 0.739
ElecMinimize: Iter:  11  F: -2903.359982343340562  |grad|_K:  8.487e-07  alpha:  4.426e-01  linmin:  2.760e-06  t[s]:    574.88
	FillingsUpdate:  mu: -0.057212035  nElectrons: 672.500000
	SubspaceRotationAdjust: set factor to 0.717
ElecMinimize: Iter:  12  F: -2903.360008144421499  |grad|_K:  5.176e-07  alpha:  3.643e-01  linmin:  7.736e-07  t[s]:    596.62
	FillingsUpdate:  mu: -0.057134636  nElectrons: 672.500000
	SubspaceRotationAdjust: set factor to 0.738
ElecMinimize: Iter:  13  F: -2903.360018781100734  |grad|_K:  3.240e-07  alpha:  4.029e-01  linmin:  9.851e-07  t[s]:    617.94
	FillingsUpdate:  mu: -0.057221325  nElectrons: 672.500000
	SubspaceRotationAdjust: set factor to 0.79
ElecMinimize: Iter:  14  F: -2903.360023534356060  |grad|_K:  2.219e-07  alpha:  4.600e-01  linmin:  4.642e-07  t[s]:    639.48
	FillingsUpdate:  mu: -0.057174232  nElectrons: 672.500000
	SubspaceRotationAdjust: set factor to 0.915
ElecMinimize: Iter:  15  F: -2903.360025672400297  |grad|_K:  1.471e-07  alpha:  4.403e-01  linmin:  2.632e-07  t[s]:    660.66
	FillingsUpdate:  mu: -0.057176564  nElectrons: 672.500000
	SubspaceRotationAdjust: set factor to 1.04
ElecMinimize: Iter:  16  F: -2903.360026658295737  |grad|_K:  1.035e-07  alpha:  4.619e-01  linmin:  1.548e-07  t[s]:    682.67
	FillingsUpdate:  mu: -0.057203082  nElectrons: 672.500000
	SubspaceRotationAdjust: set factor to 1
ElecMinimize: Iter:  17  F: -2903.360027070528758  |grad|_K:  6.610e-08  alpha:  3.896e-01  linmin:  9.909e-08  t[s]:    704.11
	FillingsUpdate:  mu: -0.057169595  nElectrons: 672.500000
	SubspaceRotationAdjust: set factor to 0.916
ElecMinimize: Iter:  18  F: -2903.360027245013498  |grad|_K:  5.270e-08  alpha:  4.048e-01  linmin: -1.360e-08  t[s]:    725.80
	FillingsUpdate:  mu: -0.057194044  nElectrons: 672.500000
	SubspaceRotationAdjust: set factor to 0.772
ElecMinimize: Iter:  19  F: -2903.360027332745176  |grad|_K:  3.907e-08  alpha:  3.194e-01  linmin:  9.450e-09  t[s]:    747.37
	FillingsUpdate:  mu: -0.057178365  nElectrons: 672.500000
	SubspaceRotationAdjust: set factor to 0.73
ElecMinimize: Iter:  20  F: -2903.360027385739158  |grad|_K:  2.719e-08  alpha:  3.514e-01  linmin:  1.494e-09  t[s]:    769.06
	FillingsUpdate:  mu: -0.057183559  nElectrons: 672.500000
	SubspaceRotationAdjust: set factor to 0.868
ElecMinimize: Iter:  21  F: -2903.360027415626973  |grad|_K:  1.940e-08  alpha:  4.099e-01  linmin:  1.030e-07  t[s]:    790.07
	FillingsUpdate:  mu: -0.057189669  nElectrons: 672.500000
	SubspaceRotationAdjust: set factor to 0.932
ElecMinimize: Iter:  22  F: -2903.360027432509469  |grad|_K:  1.453e-08  alpha:  4.556e-01  linmin:  5.994e-08  t[s]:    811.59
	FillingsUpdate:  mu: -0.057182457  nElectrons: 672.500000
	SubspaceRotationAdjust: set factor to 0.856
ElecMinimize: Iter:  23  F: -2903.360027439408441  |grad|_K:  1.157e-08  alpha:  3.328e-01  linmin:  4.328e-08  t[s]:    833.06
	FillingsUpdate:  mu: -0.057187593  nElectrons: 672.500000
	SubspaceRotationAdjust: set factor to 0.788
ElecMinimize: Iter:  24  F: -2903.360027444149637  |grad|_K:  7.904e-09  alpha:  3.615e-01  linmin:  1.356e-07  t[s]:    854.88
ElecMinimize: Converged (|Delta F|<1.000000e-08 for 2 iters).
Setting wave functions to eigenvectors of Hamiltonian
Vacuum energy after initial minimize, F = -2903.360027444149637

	Linear fluid (dielectric constant: 78.4, screening length: 5.74355 Bohr) occupying 0.756899 of unit cell:	Completed after 17 iterations at t[s]:    863.49

-------- Electronic minimization -----------
	Linear fluid (dielectric constant: 78.4, screening length: 5.74355 Bohr) occupying 0.756899 of unit cell:	Completed after 0 iterations at t[s]:    871.50
	FillingsUpdate:  mu: -0.223133763  nElectrons: 672.500000
ElecMinimize: Iter:   0  F: -2903.427367066217812  |grad|_K:  1.853e-06  alpha:  1.000e+00
	Linear fluid (dielectric constant: 78.4, screening length: 5.74355 Bohr) occupying 0.757076 of unit cell:	Completed after 12 iterations at t[s]:    892.01
	Linear fluid (dielectric constant: 78.4, screening length: 5.74355 Bohr) occupying 0.756940 of unit cell:	Completed after 12 iterations at t[s]:    904.36
	FillingsUpdate:  mu: -0.224929467  nElectrons: 672.500000
	SubspaceRotationAdjust: set factor to 0.537
ElecMinimize: Iter:   1  F: -2903.427443518072323  |grad|_K:  1.055e-06  alpha:  2.263e-01  linmin:  3.503e-07  t[s]:    917.03
	Linear fluid (dielectric constant: 78.4, screening length: 5.74355 Bohr) occupying 0.756996 of unit cell:	Completed after 2 iterations at t[s]:    924.01
	Linear fluid (dielectric constant: 78.4, screening length: 5.74355 Bohr) occupying 0.757062 of unit cell:	Completed after 3 iterations at t[s]:    934.25
	FillingsUpdate:  mu: -0.224800589  nElectrons: 672.500000
	SubspaceRotationAdjust: set factor to 0.652
ElecMinimize: Iter:   2  F: -2903.427498109222142  |grad|_K:  6.612e-07  alpha:  4.982e-01  linmin: -4.642e-08  t[s]:    945.31
	Linear fluid (dielectric constant: 78.4, screening length: 5.74355 Bohr) occupying 0.757142 of unit cell:	Completed after 7 iterations at t[s]:    953.41
	Linear fluid (dielectric constant: 78.4, screening length: 5.74355 Bohr) occupying 0.757132 of unit cell:	Completed after 2 iterations at t[s]:    963.67
	FillingsUpdate:  mu: -0.224669981  nElectrons: 672.500000
	SubspaceRotationAdjust: set factor to 0.62
ElecMinimize: Iter:   3  F: -2903.427516759122227  |grad|_K:  3.485e-07  alpha:  4.317e-01  linmin:  8.307e-08  t[s]:    975.54
	Linear fluid (dielectric constant: 78.4, screening length: 5.74355 Bohr) occupying 0.757162 of unit cell:	Completed after 3 iterations at t[s]:    983.42
	Linear fluid (dielectric constant: 78.4, screening length: 5.74355 Bohr) occupying 0.757163 of unit cell:	Completed after 0 iterations at t[s]:    992.62
	FillingsUpdate:  mu: -0.224475227  nElectrons: 672.500000
	SubspaceRotationAdjust: set factor to 0.564
ElecMinimize: Iter:   4  F: -2903.427522203843637  |grad|_K:  1.772e-07  alpha:  4.544e-01  linmin: -6.872e-07  t[s]:   1003.70
	Linear fluid (dielectric constant: 78.4, screening length: 5.74355 Bohr) occupying 0.757173 of unit cell:	Completed after 3 iterations at t[s]:   1010.93
	Linear fluid (dielectric constant: 78.4, screening length: 5.74355 Bohr) occupying 0.757173 of unit cell:	Completed after 0 iterations at t[s]:   1020.46
	FillingsUpdate:  mu: -0.224468465  nElectrons: 672.500000
	SubspaceRotationAdjust: set factor to 0.521
ElecMinimize: Iter:   5  F: -2903.427523644169469  |grad|_K:  8.312e-08  alpha:  4.548e-01  linmin: -1.096e-06  t[s]:   1031.24
	Linear fluid (dielectric constant: 78.4, screening length: 5.74355 Bohr) occupying 0.757175 of unit cell:	Completed after 2 iterations at t[s]:   1038.48
	Linear fluid (dielectric constant: 78.4, screening length: 5.74355 Bohr) occupying 0.757175 of unit cell:	Completed after 0 iterations at t[s]:   1047.42
	FillingsUpdate:  mu: -0.224423503  nElectrons: 672.500000
	SubspaceRotationAdjust: set factor to 0.476
ElecMinimize: Iter:   6  F: -2903.427523974123233  |grad|_K:  6.221e-08  alpha:  4.711e-01  linmin: -1.630e-05  t[s]:   1058.71
	Linear fluid (dielectric constant: 78.4, screening length: 5.74355 Bohr) occupying 0.757176 of unit cell:	Completed after 2 iterations at t[s]:   1065.93
	Linear fluid (dielectric constant: 78.4, screening length: 5.74355 Bohr) occupying 0.757176 of unit cell:	Completed after 0 iterations at t[s]:   1075.34
	FillingsUpdate:  mu: -0.224445799  nElectrons: 672.500000
	SubspaceRotationAdjust: set factor to 0.37
ElecMinimize: Iter:   7  F: -2903.427524138982335  |grad|_K:  4.174e-08  alpha:  3.912e-01  linmin: -3.793e-06  t[s]:   1086.05
	Linear fluid (dielectric constant: 78.4, screening length: 5.74355 Bohr) occupying 0.757176 of unit cell:	Completed after 0 iterations at t[s]:   1092.93
	Linear fluid (dielectric constant: 78.4, screening length: 5.74355 Bohr) occupying 0.757176 of unit cell:	Completed after 2 iterations at t[s]:   1101.96
	FillingsUpdate:  mu: -0.224427988  nElectrons: 672.500000
	SubspaceRotationAdjust: set factor to 0.309
ElecMinimize: Iter:   8  F: -2903.427524196156355  |grad|_K:  4.155e-08  alpha:  7.615e-01  linmin:  2.475e-05  t[s]:   1113.06
	Linear fluid (dielectric constant: 78.4, screening length: 5.74355 Bohr) occupying 0.757176 of unit cell:	Completed after 0 iterations at t[s]:   1119.75
	Linear fluid (dielectric constant: 78.4, screening length: 5.74355 Bohr) occupying 0.757176 of unit cell:	Completed after 0 iterations at t[s]:   1128.61
	FillingsUpdate:  mu: -0.224427945  nElectrons: 672.500000
	SubspaceRotationAdjust: set factor to 0.394
ElecMinimize: Iter:   9  F: -2903.427524223846831  |grad|_K:  2.996e-08  alpha:  3.362e-01  linmin: -3.607e-07  t[s]:   1138.97
	Linear fluid (dielectric constant: 78.4, screening length: 5.74355 Bohr) occupying 0.757176 of unit cell:	Completed after 0 iterations at t[s]:   1145.62
	Linear fluid (dielectric constant: 78.4, screening length: 5.74355 Bohr) occupying 0.757176 of unit cell:	Completed after 2 iterations at t[s]:   1154.72
ElecMinimize: 	Step increased F by 2.453407e-08, reducing alpha to 4.423771e-02.
	Linear fluid (dielectric constant: 78.4, screening length: 5.74355 Bohr) occupying 0.757176 of unit cell:	Completed after 0 iterations at t[s]:   1171.51
	FillingsUpdate:  mu: -0.224453642  nElectrons: 672.500000
	SubspaceRotationAdjust: set factor to 0.325
ElecMinimize: Iter:  10  F: -2903.427524258504945  |grad|_K:  3.175e-08  alpha:  4.424e-02  linmin:  1.963e-05  t[s]:   1182.48
	Linear fluid (dielectric constant: 78.4, screening length: 5.74355 Bohr) occupying 0.757176 of unit cell:	Completed after 0 iterations at t[s]:   1189.06
ElecMinimize: 	Predicted alpha/alphaT>3.000000, increasing alphaT to 1.327131e-01.
	Linear fluid (dielectric constant: 78.4, screening length: 5.74355 Bohr) occupying 0.757176 of unit cell:	Completed after 0 iterations at t[s]:   1197.96
	Linear fluid (dielectric constant: 78.4, screening length: 5.74355 Bohr) occupying 0.757176 of unit cell:	Completed after 0 iterations at t[s]:   1206.71
	FillingsUpdate:  mu: -0.224453651  nElectrons: 672.500000
	SubspaceRotationAdjust: set factor to 0.465
ElecMinimize: Iter:  11  F: -2903.427524268606248  |grad|_K:  2.782e-08  alpha:  1.651e-01  linmin: -2.527e-07  t[s]:   1217.70
	Linear fluid (dielectric constant: 78.4, screening length: 5.74355 Bohr) occupying 0.757175 of unit cell:	Completed after 0 iterations at t[s]:   1224.41
	Linear fluid (dielectric constant: 78.4, screening length: 5.74355 Bohr) occupying 0.757175 of unit cell:	Completed after 0 iterations at t[s]:   1233.37
	FillingsUpdate:  mu: -0.224453930  nElectrons: 672.500000
	SubspaceRotationAdjust: set factor to 0.603
ElecMinimize: Iter:  12  F: -2903.427524289683333  |grad|_K:  2.975e-08  alpha:  2.792e-01  linmin:  7.366e-07  t[s]:   1243.88
	Linear fluid (dielectric constant: 78.4, screening length: 5.74355 Bohr) occupying 0.757175 of unit cell:	Completed after 2 iterations at t[s]:   1250.91
	Linear fluid (dielectric constant: 78.4, screening length: 5.74355 Bohr) occupying 0.757175 of unit cell:	Completed after 1 iterations at t[s]:   1260.60
ElecMinimize: 	Step increased F by 6.759183e-08, reducing alpha to 2.439677e-03.
	Linear fluid (dielectric constant: 78.4, screening length: 5.74355 Bohr) occupying 0.757175 of unit cell:	Completed after 0 iterations at t[s]:   1276.97
ElecMinimize: 	Step increased F by 5.751781e-08, reducing alpha to 2.439677e-04.
	Linear fluid (dielectric constant: 78.4, screening length: 5.74355 Bohr) occupying 0.757175 of unit cell:	Completed after 0 iterations at t[s]:   1293.60
ElecMinimize: 	Step increased F by 5.640595e-08, reducing alpha to 2.439677e-05.
ElecMinimize: 	Step failed to reduce F after 3 attempts. Quitting step.
ElecMinimize: 	Undoing step.
	Linear fluid (dielectric constant: 78.4, screening length: 5.74355 Bohr) occupying 0.757175 of unit cell:	Completed after 0 iterations at t[s]:   1309.59
ElecMinimize: 	Step failed: resetting search direction.
	FillingsUpdate:  mu: -0.224400484  nElectrons: 672.500000
	SubspaceRotationAdjust: set factor to 0.497
ElecMinimize: Iter:  13  F: -2903.427524233275108  |grad|_K:  5.973e-08  alpha:  2.440e-05
	Linear fluid (dielectric constant: 78.4, screening length: 5.74355 Bohr) occupying 0.757175 of unit cell:	Completed after 3 iterations at t[s]:   1327.92
	Linear fluid (dielectric constant: 78.4, screening length: 5.74355 Bohr) occupying 0.757175 of unit cell:	Completed after 0 iterations at t[s]:   1337.40
	FillingsUpdate:  mu: -0.224460054  nElectrons: 672.500000
	SubspaceRotationAdjust: set factor to 0.265
ElecMinimize: Iter:  14  F: -2903.427524280618400  |grad|_K:  4.422e-08  alpha:  1.207e-01  linmin:  3.532e-04  t[s]:   1347.83
	Linear fluid (dielectric constant: 78.4, screening length: 5.74355 Bohr) occupying 0.757175 of unit cell:	Completed after 0 iterations at t[s]:   1354.63
ElecMinimize: 	Predicted alpha/alphaT>3.000000, increasing alphaT to 3.619587e-01.
	Linear fluid (dielectric constant: 78.4, screening length: 5.74355 Bohr) occupying 0.757175 of unit cell:	Completed after 0 iterations at t[s]:   1363.34
	Linear fluid (dielectric constant: 78.4, screening length: 5.74355 Bohr) occupying 0.757175 of unit cell:	Completed after 0 iterations at t[s]:   1372.40
	FillingsUpdate:  mu: -0.224460194  nElectrons: 672.500000
	SubspaceRotationAdjust: set factor to 0.359
ElecMinimize: Iter:  15  F: -2903.427524318193718  |grad|_K:  3.866e-08  alpha:  5.081e-01  linmin: -2.779e-07  t[s]:   1383.26
	Linear fluid (dielectric constant: 78.4, screening length: 5.74355 Bohr) occupying 0.757175 of unit cell:	Completed after 1 iterations at t[s]:   1390.27
	Linear fluid (dielectric constant: 78.4, screening length: 5.74355 Bohr) occupying 0.757175 of unit cell:	Completed after 2 iterations at t[s]:   1400.07
ElecMinimize: 	Step increased F by 8.580992e-08, reducing alpha to 8.778256e-03.
	Linear fluid (dielectric constant: 78.4, screening length: 5.74355 Bohr) occupying 0.757175 of unit cell:	Completed after 0 iterations at t[s]:   1417.07
ElecMinimize: 	Step increased F by 6.583696e-08, reducing alpha to 8.778256e-04.
	Linear fluid (dielectric constant: 78.4, screening length: 5.74355 Bohr) occupying 0.757175 of unit cell:	Completed after 0 iterations at t[s]:   1433.66
ElecMinimize: 	Step increased F by 6.406435e-08, reducing alpha to 8.778256e-05.
ElecMinimize: 	Step failed to reduce F after 3 attempts. Quitting step.
ElecMinimize: 	Undoing step.
	Linear fluid (dielectric constant: 78.4, screening length: 5.74355 Bohr) occupying 0.757175 of unit cell:	Completed after 0 iterations at t[s]:   1449.56
ElecMinimize: 	Step failed: resetting search direction.
	FillingsUpdate:  mu: -0.224408416  nElectrons: 672.500000
	SubspaceRotationAdjust: set factor to 0.277
ElecMinimize: Iter:  16  F: -2903.427524254115724  |grad|_K:  4.486e-08  alpha:  8.778e-05
	Linear fluid (dielectric constant: 78.4, screening length: 5.74355 Bohr) occupying 0.757175 of unit cell:	Completed after 3 iterations at t[s]:   1468.00
	Linear fluid (dielectric constant: 78.4, screening length: 5.74355 Bohr) occupying 0.757175 of unit cell:	Completed after 0 iterations at t[s]:   1477.52
	FillingsUpdate:  mu: -0.224465556  nElectrons: 672.500000
	SubspaceRotationAdjust: set factor to 0.191
ElecMinimize: Iter:  17  F: -2903.427524312672176  |grad|_K:  5.058e-08  alpha:  1.689e-01  linmin:  4.856e-04  t[s]:   1488.36
	Linear fluid (dielectric constant: 78.4, screening length: 5.74355 Bohr) occupying 0.757175 of unit cell:	Completed after 0 iterations at t[s]:   1494.92
	Linear fluid (dielectric constant: 78.4, screening length: 5.74355 Bohr) occupying 0.757175 of unit cell:	Completed after 0 iterations at t[s]:   1503.59
	FillingsUpdate:  mu: -0.224465548  nElectrons: 672.500000
	SubspaceRotationAdjust: set factor to 0.276
ElecMinimize: Iter:  18  F: -2903.427524313407503  |grad|_K:  4.654e-08  alpha:  4.104e-02  linmin: -4.186e-08  t[s]:   1514.73
	Linear fluid (dielectric constant: 78.4, screening length: 5.74355 Bohr) occupying 0.757175 of unit cell:	Completed after 0 iterations at t[s]:   1521.19
ElecMinimize: 	Predicted alpha/alphaT>3.000000, increasing alphaT to 1.231268e-01.
	Linear fluid (dielectric constant: 78.4, screening length: 5.74355 Bohr) occupying 0.757175 of unit cell:	Completed after 1 iterations at t[s]:   1530.45
	Linear fluid (dielectric constant: 78.4, screening length: 5.74355 Bohr) occupying 0.757175 of unit cell:	Completed after 0 iterations at t[s]:   1539.44
ElecMinimize: 	Step increased F by 4.442199e-08, reducing alpha to 3.202092e-03.
	Linear fluid (dielectric constant: 78.4, screening length: 5.74355 Bohr) occupying 0.757175 of unit cell:	Completed after 0 iterations at t[s]:   1555.84
ElecMinimize: 	Step increased F by 4.534650e-08, reducing alpha to 3.202092e-04.
	Linear fluid (dielectric constant: 78.4, screening length: 5.74355 Bohr) occupying 0.757175 of unit cell:	Completed after 0 iterations at t[s]:   1572.76
ElecMinimize: 	Step increased F by 4.545655e-08, reducing alpha to 3.202092e-05.
ElecMinimize: 	Step failed to reduce F after 3 attempts. Quitting step.
ElecMinimize: 	Undoing step.
	Linear fluid (dielectric constant: 78.4, screening length: 5.74355 Bohr) occupying 0.757175 of unit cell:	Completed after 0 iterations at t[s]:   1589.40
ElecMinimize: 	Step failed: resetting search direction.
	FillingsUpdate:  mu: -0.224432174  nElectrons: 672.500000
	SubspaceRotationAdjust: set factor to 0.43
ElecMinimize: Iter:  19  F: -2903.427524267889112  |grad|_K:  8.252e-09  alpha:  3.202e-05
	Linear fluid (dielectric constant: 78.4, screening length: 5.74355 Bohr) occupying 0.757175 of unit cell:	Completed after 0 iterations at t[s]:   1607.32
ElecMinimize: 	Predicted alpha/alphaT>3.000000, increasing alphaT to 1.231268e-01.
	Linear fluid (dielectric constant: 78.4, screening length: 5.74355 Bohr) occupying 0.757175 of unit cell:	Completed after 0 iterations at t[s]:   1615.91
ElecMinimize: 	Predicted alpha/alphaT>3.000000, increasing alphaT to 3.693804e-01.
	Linear fluid (dielectric constant: 78.4, screening length: 5.74355 Bohr) occupying 0.757175 of unit cell:	Completed after 0 iterations at t[s]:   1624.79
	Linear fluid (dielectric constant: 78.4, screening length: 5.74355 Bohr) occupying 0.757175 of unit cell:	Completed after 0 iterations at t[s]:   1633.54
	FillingsUpdate:  mu: -0.224432191  nElectrons: 672.500000
	SubspaceRotationAdjust: set factor to 0.467
ElecMinimize: Iter:  20  F: -2903.427524271325638  |grad|_K:  7.432e-09  alpha:  5.433e-01  linmin:  7.213e-06  t[s]:   1644.29
	Linear fluid (dielectric constant: 78.4, screening length: 5.74355 Bohr) occupying 0.757175 of unit cell:	Completed after 0 iterations at t[s]:   1651.31
	Linear fluid (dielectric constant: 78.4, screening length: 5.74355 Bohr) occupying 0.757175 of unit cell:	Completed after 0 iterations at t[s]:   1659.95
ElecMinimize: 	Step increased F by 5.891252e-09, reducing alpha to 1.418321e-02.
	Linear fluid (dielectric constant: 78.4, screening length: 5.74355 Bohr) occupying 0.757175 of unit cell:	Completed after 0 iterations at t[s]:   1676.09
ElecMinimize: 	Step increased F by 6.829396e-09, reducing alpha to 1.418321e-03.
	Linear fluid (dielectric constant: 78.4, screening length: 5.74355 Bohr) occupying 0.757175 of unit cell:	Completed after 0 iterations at t[s]:   1692.41
ElecMinimize: 	Step increased F by 6.940809e-09, reducing alpha to 1.418321e-04.
ElecMinimize: 	Step failed to reduce F after 3 attempts. Quitting step.
ElecMinimize: 	Undoing step.
	Linear fluid (dielectric constant: 78.4, screening length: 5.74355 Bohr) occupying 0.757175 of unit cell:	Completed after 0 iterations at t[s]:   1708.85
ElecMinimize: 	Step failed: resetting search direction.
	FillingsUpdate:  mu: -0.224434540  nElectrons: 672.500000
	SubspaceRotationAdjust: set factor to 0.507
ElecMinimize: Iter:  21  F: -2903.427524264453950  |grad|_K:  7.042e-09  alpha:  1.418e-04
	Linear fluid (dielectric constant: 78.4, screening length: 5.74355 Bohr) occupying 0.757175 of unit cell:	Completed after 0 iterations at t[s]:   1727.01
	Linear fluid (dielectric constant: 78.4, screening length: 5.74355 Bohr) occupying 0.757175 of unit cell:	Completed after 0 iterations at t[s]:   1735.64
	FillingsUpdate:  mu: -0.224434548  nElectrons: 672.500000
	SubspaceRotationAdjust: set factor to 0.595
ElecMinimize: Iter:  22  F: -2903.427524265728607  |grad|_K:  4.035e-09  alpha:  2.646e-01  linmin: -3.829e-06  t[s]:   1746.40
	Linear fluid (dielectric constant: 78.4, screening length: 5.74355 Bohr) occupying 0.757175 of unit cell:	Completed after 0 iterations at t[s]:   1753.25
	Linear fluid (dielectric constant: 78.4, screening length: 5.74355 Bohr) occupying 0.757175 of unit cell:	Completed after 0 iterations at t[s]:   1761.90
	FillingsUpdate:  mu: -0.224434578  nElectrons: 672.500000
	SubspaceRotationAdjust: set factor to 0.706
ElecMinimize: Iter:  23  F: -2903.427524267252466  |grad|_K:  3.149e-09  alpha:  6.674e-01  linmin: -1.009e-05  t[s]:   1772.82
ElecMinimize: Converged (|Delta F|<1.000000e-08 for 2 iters).
Setting wave functions to eigenvectors of Hamiltonian
Single-point solvation energy estimate, DeltaF = -0.067496823102829

# Ionic positions in lattice coordinates:
ion V   0.166666658916667   0.083333325633333   0.561660652738666 1
ion V   0.083333325583333   0.166666658966667   0.438323318461334 1
ion V   0.416666658916667   0.083333325633333   0.561660652738666 1
ion V   0.333333325583333   0.166666658966667   0.438323318461334 1
ion V   0.666666658916667   0.083333325633333   0.561660652738666 1
ion V   0.583333325583333   0.166666658966667   0.438323318461334 1
ion V   0.916666658916667   0.083333325633333   0.561660652738666 1
ion V   0.833333325583333   0.166666658966667   0.438323318461334 1
ion V   0.166666658916667   0.333333325633333   0.561660652738666 1
ion V   0.083333325583333   0.416666658966667   0.438323318461334 1
ion V   0.416666658916667   0.333333325633333   0.561660652738666 1
ion V   0.333333325583333   0.416666658966667   0.438323318461334 1
ion V   0.666666658916667   0.333333325633333   0.561660652738666 1
ion V   0.583333325583333   0.416666658966667   0.438323318461334 1
ion V   0.916666658916667   0.333333325633333   0.561660652738666 1
ion V   0.833333325583333   0.416666658966667   0.438323318461334 1
ion V   0.166666658916667   0.583333325633333   0.561660652738666 1
ion V   0.083333325583333   0.666666658966667   0.438323318461334 1
ion V   0.416666658916667   0.583333325633333   0.561660652738666 1
ion V   0.333333325583333   0.666666658966667   0.438323318461334 1
ion V   0.666666658916667   0.583333325633333   0.561660652738666 1
ion V   0.583333325583333   0.666666658966667   0.438323318461334 1
ion V   0.916666658916667   0.583333325633333   0.561660652738666 1
ion V   0.833333325583333   0.666666658966667   0.438323318461334 1
ion V   0.166666658916667   0.833333325633333   0.561660652738666 1
ion V   0.083333325583333   0.916666658966667   0.438323318461334 1
ion V   0.416666658916667   0.833333325633333   0.561660652738666 1
ion V   0.333333325583333   0.916666658966667   0.438323318461334 1
ion V   0.666666658916667   0.833333325633333   0.561660652738666 1
ion V   0.583333325583333   0.916666658966667   0.438323318461334 1
ion V   0.916666658916667   0.833333325633333   0.561660652738666 1
ion V   0.833333325583333   0.916666658966667   0.438323318461334 1
ion C  -0.000000007750000  -0.000000007700000   0.499991985600000 1
ion C   0.249999992250000  -0.000000007700000   0.499991985600000 1
ion C   0.499999992250000  -0.000000007700000   0.499991985600000 1
ion C   0.749999992250000  -0.000000007700000   0.499991985600000 1
ion C  -0.000000007750000   0.249999992300000   0.499991985600000 1
ion C   0.249999992250000   0.249999992300000   0.499991985600000 1
ion C   0.499999992250000   0.249999992300000   0.499991985600000 1
ion C   0.749999992250000   0.249999992300000   0.499991985600000 1
ion C  -0.000000007750000   0.499999992300000   0.499991985600000 1
ion C   0.249999992250000   0.499999992300000   0.499991985600000 1
ion C   0.499999992250000   0.499999992300000   0.499991985600000 1
ion C   0.749999992250000   0.499999992300000   0.499991985600000 1
ion C  -0.000000007750000   0.749999992300000   0.499991985600000 1
ion C   0.249999992250000   0.749999992300000   0.499991985600000 1
ion C   0.499999992250000   0.749999992300000   0.499991985600000 1
ion C   0.749999992250000   0.749999992300000   0.499991985600000 1
ion O   0.083333325583333   0.166666658966667   0.614324423076145 1
ion O   0.166666658916667   0.083333325633333   0.385659548123855 1
ion O   0.333333325583333   0.166666658966667   0.614324423076145 1
ion O   0.416666658916667   0.083333325633333   0.385659548123855 1
ion O   0.583333325583333   0.166666658966667   0.614324423076145 1
ion O   0.666666658916667   0.083333325633333   0.385659548123855 1
ion O   0.833333325583333   0.166666658966667   0.614324423076145 1
ion O   0.916666658916667   0.083333325633333   0.385659548123855 1
ion O   0.083333325583333   0.416666658966667   0.614324423076145 1
ion O   0.166666658916667   0.333333325633333   0.385659548123855 1
ion O   0.333333325583333   0.416666658966667   0.614324423076145 1
ion O   0.416666658916667   0.333333325633333   0.385659548123855 1
ion O   0.583333325583333   0.416666658966667   0.614324423076145 1
ion O   0.666666658916667   0.333333325633333   0.385659548123855 1
ion O   0.833333325583333   0.416666658966667   0.614324423076145 1
ion O   0.916666658916667   0.333333325633333   0.385659548123855 1
ion O   0.083333325583333   0.666666658966667   0.614324423076145 1
ion O   0.166666658916667   0.583333325633333   0.385659548123855 1
ion O   0.333333325583333   0.666666658966667   0.614324423076145 1
ion O   0.416666658916667   0.583333325633333   0.385659548123855 1
ion O   0.583333325583333   0.666666658966667   0.614324423076145 1
ion O   0.666666658916667   0.583333325633333   0.385659548123855 1
ion O   0.833333325583333   0.666666658966667   0.614324423076145 1
ion O   0.916666658916667   0.583333325633333   0.385659548123855 1
ion O   0.083333325583333   0.916666658966667   0.614324423076145 1
ion O   0.166666658916667   0.833333325633333   0.385659548123855 1
ion O   0.333333325583333   0.916666658966667   0.614324423076145 1
ion O   0.416666658916667   0.833333325633333   0.385659548123855 1
ion O   0.583333325583333   0.916666658966667   0.614324423076145 1
ion O   0.666666658916667   0.833333325633333   0.385659548123855 1
ion O   0.833333325583333   0.916666658966667   0.614324423076145 1
ion O   0.916666658916667   0.833333325633333   0.385659548123855 1


# Forces in Lattice coordinates:
force V  -0.000000000000000   0.000000000000000  -0.088908717959447 1
force V   0.000000000000000  -0.000000000000000   0.088908717958989 1
force V  -0.000000000000000   0.000000000000000  -0.088908717958991 1
force V   0.000000000000000  -0.000000000000000   0.088908717960582 1
force V   0.000000000000000   0.000000000000000  -0.088908717959901 1
force V  -0.000000000000000  -0.000000000000000   0.088908717959444 1
force V   0.000000000000000  -0.000000000000000  -0.088908717959445 1
force V  -0.000000000000000   0.000000000000000   0.088908717958307 1
force V   0.000000000000000  -0.000000000000000  -0.088908717960583 1
force V  -0.000000000000000  -0.000000000000000   0.088908717958534 1
force V   0.000000000000000  -0.000000000000000  -0.088908717958764 1
force V  -0.000000000000000  -0.000000000000000   0.088908717959671 1
force V  -0.000000000000000  -0.000000000000000  -0.088908717959901 1
force V   0.000000000000000  -0.000000000000000   0.088908717958990 1
force V  -0.000000000000000  -0.000000000000000  -0.088908717960129 1
force V   0.000000000000000  -0.000000000000000   0.088908717958307 1
force V  -0.000000000000000   0.000000000000000  -0.088908717960129 1
force V  -0.000000000000000  -0.000000000000000   0.088908717958989 1
force V  -0.000000000000000  -0.000000000000000  -0.088908717959446 1
force V  -0.000000000000000   0.000000000000000   0.088908717960126 1
force V  -0.000000000000000   0.000000000000000  -0.088908717959446 1
force V   0.000000000000000   0.000000000000000   0.088908717958989 1
force V  -0.000000000000000  -0.000000000000000  -0.088908717960129 1
force V   0.000000000000000  -0.000000000000000   0.088908717958307 1
force V  -0.000000000000000  -0.000000000000000  -0.088908717960129 1
force V   0.000000000000000  -0.000000000000000   0.088908717958989 1
force V   0.000000000000000  -0.000000000000000  -0.088908717958765 1
force V   0.000000000000000  -0.000000000000000   0.088908717960126 1
force V  -0.000000000000000   0.000000000000000  -0.088908717959446 1
force V  -0.000000000000000   0.000000000000000   0.088908717959217 1
force V   0.000000000000000  -0.000000000000000  -0.088908717959447 1
force V   0.000000000000000   0.000000000000000   0.088908717957852 1
force C   0.000000000000000   0.000000000000000   0.000000000000000 1
force C   0.000000000000000   0.000000000000000  -0.000000000000000 1
force C   0.000000000000000  -0.000000000000000  -0.000000000000000 1
force C  -0.000000000000000   0.000000000000000   0.000000000000000 1
force C   0.000000000000000  -0.000000000000000  -0.000000000000000 1
force C  -0.000000000000000   0.000000000000000   0.000000000000000 1
force C   0.000000000000000  -0.000000000000000  -0.000000000000000 1
force C  -0.000000000000000   0.000000000000000  -0.000000000000000 1
force C  -0.000000000000000  -0.000000000000000  -0.000000000000000 1
force C   0.000000000000000   0.000000000000000   0.000000000000000 1
force C  -0.000000000000000  -0.000000000000000   0.000000000000000 1
force C  -0.000000000000000   0.000000000000000  -0.000000000000000 1
force C   0.000000000000000  -0.000000000000000   0.000000000000000 1
force C  -0.000000000000000   0.000000000000000  -0.000000000000000 1
force C   0.000000000000000  -0.000000000000000   0.000000000000000 1
force C  -0.000000000000000  -0.000000000000000   0.000000000000000 1
force O  -0.000000000000000  -0.000000000000000   0.069167245597466 1
force O  -0.000000000000000  -0.000000000000000  -0.069167245601328 1
force O   0.000000000000000  -0.000000000000000   0.069167245597910 1
force O  -0.000000000000000   0.000000000000000  -0.069167245601331 1
force O   0.000000000000000  -0.000000000000000   0.069167245597690 1
force O  -0.000000000000000   0.000000000000000  -0.069167245601328 1
force O   0.000000000000000  -0.000000000000000   0.069167245597917 1
force O  -0.000000000000000   0.000000000000000  -0.069167245601335 1
force O   0.000000000000000  -0.000000000000000   0.069167245597924 1
force O   0.000000000000000   0.000000000000000  -0.069167245601562 1
force O   0.000000000000000  -0.000000000000000   0.069167245597924 1
force O  -0.000000000000000   0.000000000000000  -0.069167245601559 1
force O   0.000000000000000  -0.000000000000000   0.069167245598155 1
force O  -0.000000000000000   0.000000000000000  -0.069167245601790 1
force O   0.000000000000000  -0.000000000000000   0.069167245597693 1
force O  -0.000000000000000   0.000000000000000  -0.069167245601562 1
force O   0.000000000000000  -0.000000000000000   0.069167245597466 1
force O   0.000000000000000   0.000000000000000  -0.069167245601559 1
force O   0.000000000000000  -0.000000000000000   0.069167245597924 1
force O  -0.000000000000000   0.000000000000000  -0.069167245601339 1
force O   0.000000000000000  -0.000000000000000   0.069167245597470 1
force O  -0.000000000000000  -0.000000000000000  -0.069167245601559 1
force O   0.000000000000000  -0.000000000000000   0.069167245597917 1
force O   0.000000000000000   0.000000000000000  -0.069167245601555 1
force O   0.000000000000000  -0.000000000000000   0.069167245597917 1
force O  -0.000000000000000   0.000000000000000  -0.069167245601559 1
force O   0.000000000000000  -0.000000000000000   0.069167245597690 1
force O   0.000000000000000   0.000000000000000  -0.069167245601562 1
force O  -0.000000000000000  -0.000000000000000   0.069167245597928 1
force O  -0.000000000000000   0.000000000000000  -0.069167245601562 1
force O   0.000000000000000  -0.000000000000000   0.069167245597697 1
force O  -0.000000000000000   0.000000000000000  -0.069167245601555 1

# Energy components:
   A_diel =       -0.0565394167952052
   Eewald =    29534.1953737461735727
       EH =    31981.5038786507939221
     Eloc =   -64994.2097306399082299
      Enl =      130.0764760398722615
      Exc =     -459.5073091228526891
 Exc_core =       28.5833088668861990
       KE =      876.1106332983706579
  MuShift =       -0.0111099098593334
-------------------------------------
     Etot =    -2903.3150184873175021
       TS =        0.1125057799348830
-------------------------------------
        F =    -2903.4275242672524655

IonicMinimize: Iter:   0  F: -2903.427524267252466  |grad|_K:  1.118e-03  t[s]:   1783.83

#--- Lowdin population analysis ---
# oxidation-state V +1.055 +1.055 +1.055 +1.055 +1.055 +1.055 +1.055 +1.055 +1.055 +1.055 +1.055 +1.055 +1.055 +1.055 +1.055 +1.055 +1.055 +1.055 +1.055 +1.055 +1.055 +1.055 +1.055 +1.055 +1.055 +1.055 +1.055 +1.055 +1.055 +1.055 +1.055 +1.055
# oxidation-state C -0.830 -0.830 -0.830 -0.830 -0.830 -0.830 -0.830 -0.830 -0.830 -0.830 -0.830 -0.830 -0.830 -0.830 -0.830 -0.830
# oxidation-state O -0.584 -0.584 -0.584 -0.584 -0.584 -0.584 -0.584 -0.584 -0.584 -0.584 -0.584 -0.584 -0.584 -0.584 -0.584 -0.584 -0.584 -0.584 -0.584 -0.584 -0.584 -0.584 -0.584 -0.584 -0.584 -0.584 -0.584 -0.584 -0.584 -0.584 -0.584 -0.584

	Linear fluid (dielectric constant: 78.4, screening length: 5.74355 Bohr) occupying 0.757113 of unit cell:	Completed after 9 iterations at t[s]:   1793.50

-------- Electronic minimization -----------
	Linear fluid (dielectric constant: 78.4, screening length: 5.74355 Bohr) occupying 0.757113 of unit cell:	Completed after 0 iterations at t[s]:   1801.56
	FillingsUpdate:  mu: -0.225989072  nElectrons: 672.500000
ElecMinimize: Iter:   0  F: -2903.427617930752604  |grad|_K:  1.380e-06  alpha:  1.000e+00
	Linear fluid (dielectric constant: 78.4, screening length: 5.74355 Bohr) occupying 0.757157 of unit cell:	Completed after 11 iterations at t[s]:   1821.75
	Linear fluid (dielectric constant: 78.4, screening length: 5.74355 Bohr) occupying 0.757130 of unit cell:	Completed after 12 iterations at t[s]:   1835.02
	FillingsUpdate:  mu: -0.224403681  nElectrons: 672.500000
	SubspaceRotationAdjust: set factor to 0.42
ElecMinimize: Iter:   1  F: -2903.427690028925099  |grad|_K:  1.184e-06  alpha:  3.834e-01  linmin: -8.743e-06  t[s]:   1847.48
	Linear fluid (dielectric constant: 78.4, screening length: 5.74355 Bohr) occupying 0.757142 of unit cell:	Completed after 3 iterations at t[s]:   1854.82
	Linear fluid (dielectric constant: 78.4, screening length: 5.74355 Bohr) occupying 0.757144 of unit cell:	Completed after 3 iterations at t[s]:   1864.62
	FillingsUpdate:  mu: -0.224880380  nElectrons: 672.500000
	SubspaceRotationAdjust: set factor to 0.563
ElecMinimize: Iter:   2  F: -2903.427753253155515  |grad|_K:  6.491e-07  alpha:  4.560e-01  linmin:  9.958e-06  t[s]:   1876.28
	Linear fluid (dielectric constant: 78.4, screening length: 5.74355 Bohr) occupying 0.757146 of unit cell:	Completed after 2 iterations at t[s]:   1883.30
	Linear fluid (dielectric constant: 78.4, screening length: 5.74355 Bohr) occupying 0.757146 of unit cell:	Completed after 2 iterations at t[s]:   1892.98
	FillingsUpdate:  mu: -0.224932342  nElectrons: 672.500000
	SubspaceRotationAdjust: set factor to 0.605
ElecMinimize: Iter:   3  F: -2903.427769822802475  |grad|_K:  2.800e-07  alpha:  4.010e-01  linmin: -1.164e-04  t[s]:   1904.06
	Linear fluid (dielectric constant: 78.4, screening length: 5.74355 Bohr) occupying 0.757145 of unit cell:	Completed after 2 iterations at t[s]:   1911.21
	Linear fluid (dielectric constant: 78.4, screening length: 5.74355 Bohr) occupying 0.757145 of unit cell:	Completed after 0 iterations at t[s]:   1920.38
	FillingsUpdate:  mu: -0.225005741  nElectrons: 672.500000
	SubspaceRotationAdjust: set factor to 0.693
ElecMinimize: Iter:   4  F: -2903.427773140223508  |grad|_K:  1.144e-07  alpha:  4.237e-01  linmin: -1.109e-04  t[s]:   1931.29
	Linear fluid (dielectric constant: 78.4, screening length: 5.74355 Bohr) occupying 0.757144 of unit cell:	Completed after 2 iterations at t[s]:   1938.42
	Linear fluid (dielectric constant: 78.4, screening length: 5.74355 Bohr) occupying 0.757144 of unit cell:	Completed after 0 iterations at t[s]:   1947.91
	FillingsUpdate:  mu: -0.224989081  nElectrons: 672.500000
	SubspaceRotationAdjust: set factor to 0.866
ElecMinimize: Iter:   5  F: -2903.427773670265196  |grad|_K:  4.804e-08  alpha:  4.048e-01  linmin: -2.373e-05  t[s]:   1958.81
	Linear fluid (dielectric constant: 78.4, screening length: 5.74355 Bohr) occupying 0.757144 of unit cell:	Completed after 0 iterations at t[s]:   1965.37
	Linear fluid (dielectric constant: 78.4, screening length: 5.74355 Bohr) occupying 0.757143 of unit cell:	Completed after 0 iterations at t[s]:   1974.00
	FillingsUpdate:  mu: -0.224988949  nElectrons: 672.500000
	SubspaceRotationAdjust: set factor to 1.03
ElecMinimize: Iter:   6  F: -2903.427773794760469  |grad|_K:  3.020e-08  alpha:  5.421e-01  linmin: -8.668e-08  t[s]:   1984.71
	Linear fluid (dielectric constant: 78.4, screening length: 5.74355 Bohr) occupying 0.757142 of unit cell:	Completed after 0 iterations at t[s]:   1991.22
	Linear fluid (dielectric constant: 78.4, screening length: 5.74355 Bohr) occupying 0.757143 of unit cell:	Completed after 0 iterations at t[s]:   2000.13
	FillingsUpdate:  mu: -0.224988744  nElectrons: 672.500000
	SubspaceRotationAdjust: set factor to 1.19
ElecMinimize: Iter:   7  F: -2903.427773827023884  |grad|_K:  1.739e-08  alpha:  3.572e-01  linmin: -3.885e-07  t[s]:   2011.19
	Linear fluid (dielectric constant: 78.4, screening length: 5.74355 Bohr) occupying 0.757142 of unit cell:	Completed after 0 iterations at t[s]:   2017.98
	Linear fluid (dielectric constant: 78.4, screening length: 5.74355 Bohr) occupying 0.757142 of unit cell:	Completed after 0 iterations at t[s]:   2026.73
	FillingsUpdate:  mu: -0.224988479  nElectrons: 672.500000
	SubspaceRotationAdjust: set factor to 1.25
ElecMinimize: Iter:   8  F: -2903.427773842115130  |grad|_K:  9.245e-09  alpha:  5.070e-01  linmin: -1.834e-06  t[s]:   2037.45
	Linear fluid (dielectric constant: 78.4, screening length: 5.74355 Bohr) occupying 0.757142 of unit cell:	Completed after 0 iterations at t[s]:   2044.13
	Linear fluid (dielectric constant: 78.4, screening length: 5.74355 Bohr) occupying 0.757142 of unit cell:	Completed after 0 iterations at t[s]:   2053.01
	FillingsUpdate:  mu: -0.224988296  nElectrons: 672.500000
	SubspaceRotationAdjust: set factor to 1.42
ElecMinimize: Iter:   9  F: -2903.427773846513446  |grad|_K:  5.861e-09  alpha:  5.207e-01  linmin:  2.800e-06  t[s]:   2063.82
	Linear fluid (dielectric constant: 78.4, screening length: 5.74355 Bohr) occupying 0.757142 of unit cell:	Completed after 0 iterations at t[s]:   2070.25
	Linear fluid (dielectric constant: 78.4, screening length: 5.74355 Bohr) occupying 0.757142 of unit cell:	Completed after 0 iterations at t[s]:   2079.12
	FillingsUpdate:  mu: -0.224988176  nElectrons: 672.500000
	SubspaceRotationAdjust: set factor to 1.64
ElecMinimize: Iter:  10  F: -2903.427773848166908  |grad|_K:  4.221e-09  alpha:  4.978e-01  linmin:  3.849e-06  t[s]:   2090.02
ElecMinimize: Converged (|Delta F|<1.000000e-08 for 2 iters).
Setting wave functions to eigenvectors of Hamiltonian

# Ionic positions in lattice coordinates:
ion V   0.166666658916667   0.083333325633333   0.561594959997980 1
ion V   0.083333325583333   0.166666658966667   0.438389011202020 1
ion V   0.416666658916667   0.083333325633333   0.561594959997980 1
ion V   0.333333325583333   0.166666658966667   0.438389011202020 1
ion V   0.666666658916667   0.083333325633333   0.561594959997980 1
ion V   0.583333325583333   0.166666658966667   0.438389011202020 1
ion V   0.916666658916667   0.083333325633333   0.561594959997980 1
ion V   0.833333325583333   0.166666658966667   0.438389011202020 1
ion V   0.166666658916667   0.333333325633333   0.561594959997980 1
ion V   0.083333325583333   0.416666658966667   0.438389011202020 1
ion V   0.416666658916667   0.333333325633333   0.561594959997980 1
ion V   0.333333325583333   0.416666658966667   0.438389011202020 1
ion V   0.666666658916667   0.333333325633333   0.561594959997980 1
ion V   0.583333325583333   0.416666658966667   0.438389011202020 1
ion V   0.916666658916667   0.333333325633333   0.561594959997980 1
ion V   0.833333325583333   0.416666658966667   0.438389011202020 1
ion V   0.166666658916667   0.583333325633333   0.561594959997980 1
ion V   0.083333325583333   0.666666658966667   0.438389011202020 1
ion V   0.416666658916667   0.583333325633333   0.561594959997980 1
ion V   0.333333325583333   0.666666658966667   0.438389011202020 1
ion V   0.666666658916667   0.583333325633333   0.561594959997980 1
ion V   0.583333325583333   0.666666658966667   0.438389011202020 1
ion V   0.916666658916667   0.583333325633333   0.561594959997980 1
ion V   0.833333325583333   0.666666658966667   0.438389011202020 1
ion V   0.166666658916667   0.833333325633333   0.561594959997980 1
ion V   0.083333325583333   0.916666658966667   0.438389011202020 1
ion V   0.416666658916667   0.833333325633333   0.561594959997980 1
ion V   0.333333325583333   0.916666658966667   0.438389011202020 1
ion V   0.666666658916667   0.833333325633333   0.561594959997980 1
ion V   0.583333325583333   0.916666658966667   0.438389011202020 1
ion V   0.916666658916667   0.833333325633333   0.561594959997980 1
ion V   0.833333325583333   0.916666658966667   0.438389011202020 1
ion C  -0.000000007750000  -0.000000007700000   0.499991985600000 1
ion C   0.249999992250000  -0.000000007700000   0.499991985600000 1
ion C   0.499999992250000  -0.000000007700000   0.499991985600000 1
ion C   0.749999992250000  -0.000000007700000   0.499991985600000 1
ion C  -0.000000007750000   0.249999992300000   0.499991985600000 1
ion C   0.249999992250000   0.249999992300000   0.499991985600000 1
ion C   0.499999992250000   0.249999992300000   0.499991985600000 1
ion C   0.749999992250000   0.249999992300000   0.499991985600000 1
ion C  -0.000000007750000   0.499999992300000   0.499991985600000 1
ion C   0.249999992250000   0.499999992300000   0.499991985600000 1
ion C   0.499999992250000   0.499999992300000   0.499991985600000 1
ion C   0.749999992250000   0.499999992300000   0.499991985600000 1
ion C  -0.000000007750000   0.749999992300000   0.499991985600000 1
ion C   0.249999992250000   0.749999992300000   0.499991985600000 1
ion C   0.499999992250000   0.749999992300000   0.499991985600000 1
ion C   0.749999992250000   0.749999992300000   0.499991985600000 1
ion O   0.083333325583333   0.166666658966667   0.614375529267230 1
ion O   0.166666658916667   0.083333325633333   0.385608441932770 1
ion O   0.333333325583333   0.166666658966667   0.614375529267230 1
ion O   0.416666658916667   0.083333325633333   0.385608441932770 1
ion O   0.583333325583333   0.166666658966667   0.614375529267230 1
ion O   0.666666658916667   0.083333325633333   0.385608441932770 1
ion O   0.833333325583333   0.166666658966667   0.614375529267230 1
ion O   0.916666658916667   0.083333325633333   0.385608441932770 1
ion O   0.083333325583333   0.416666658966667   0.614375529267230 1
ion O   0.166666658916667   0.333333325633333   0.385608441932770 1
ion O   0.333333325583333   0.416666658966667   0.614375529267230 1
ion O   0.416666658916667   0.333333325633333   0.385608441932770 1
ion O   0.583333325583333   0.416666658966667   0.614375529267230 1
ion O   0.666666658916667   0.333333325633333   0.385608441932770 1
ion O   0.833333325583333   0.416666658966667   0.614375529267230 1
ion O   0.916666658916667   0.333333325633333   0.385608441932770 1
ion O   0.083333325583333   0.666666658966667   0.614375529267230 1
ion O   0.166666658916667   0.583333325633333   0.385608441932770 1
ion O   0.333333325583333   0.666666658966667   0.614375529267230 1
ion O   0.416666658916667   0.583333325633333   0.385608441932770 1
ion O   0.583333325583333   0.666666658966667   0.614375529267230 1
ion O   0.666666658916667   0.583333325633333   0.385608441932770 1
ion O   0.833333325583333   0.666666658966667   0.614375529267230 1
ion O   0.916666658916667   0.583333325633333   0.385608441932770 1
ion O   0.083333325583333   0.916666658966667   0.614375529267230 1
ion O   0.166666658916667   0.833333325633333   0.385608441932770 1
ion O   0.333333325583333   0.916666658966667   0.614375529267230 1
ion O   0.416666658916667   0.833333325633333   0.385608441932770 1
ion O   0.583333325583333   0.916666658966667   0.614375529267230 1
ion O   0.666666658916667   0.833333325633333   0.385608441932770 1
ion O   0.833333325583333   0.916666658966667   0.614375529267230 1
ion O   0.916666658916667   0.833333325633333   0.385608441932770 1


# Forces in Lattice coordinates:
force V   0.000000000000000  -0.000000000000000  -0.058201568083627 1
force V   0.000000000000000  -0.000000000000000   0.058201568084306 1
force V  -0.000000000000000  -0.000000000000000  -0.058201568083627 1
force V  -0.000000000000000  -0.000000000000000   0.058201568084306 1
force V  -0.000000000000000  -0.000000000000000  -0.058201568084081 1
force V  -0.000000000000000  -0.000000000000000   0.058201568084306 1
force V   0.000000000000000  -0.000000000000000  -0.058201568082944 1
force V   0.000000000000000   0.000000000000000   0.058201568083851 1
force V   0.000000000000000  -0.000000000000000  -0.058201568083626 1
force V   0.000000000000000  -0.000000000000000   0.058201568083851 1
force V   0.000000000000000  -0.000000000000000  -0.058201568083172 1
force V   0.000000000000000  -0.000000000000000   0.058201568084306 1
force V   0.000000000000000  -0.000000000000000  -0.058201568084082 1
force V  -0.000000000000000  -0.000000000000000   0.058201568083851 1
force V   0.000000000000000  -0.000000000000000  -0.058201568082944 1
force V  -0.000000000000000   0.000000000000000   0.058201568083851 1
force V   0.000000000000000   0.000000000000000  -0.058201568083853 1
force V  -0.000000000000000   0.000000000000000   0.058201568084306 1
force V   0.000000000000000  -0.000000000000000  -0.058201568083627 1
force V  -0.000000000000000   0.000000000000000   0.058201568084306 1
force V  -0.000000000000000  -0.000000000000000  -0.058201568084082 1
force V   0.000000000000000  -0.000000000000000   0.058201568084306 1
force V   0.000000000000000  -0.000000000000000  -0.058201568082945 1
force V   0.000000000000000   0.000000000000000   0.058201568083851 1
force V   0.000000000000000   0.000000000000000  -0.058201568083855 1
force V   0.000000000000000  -0.000000000000000   0.058201568084306 1
force V   0.000000000000000   0.000000000000000  -0.058201568083172 1
force V  -0.000000000000000  -0.000000000000000   0.058201568084761 1
force V   0.000000000000000  -0.000000000000000  -0.058201568084082 1
force V  -0.000000000000000   0.000000000000000   0.058201568083851 1
force V   0.000000000000000  -0.000000000000000  -0.058201568082945 1
force V   0.000000000000000  -0.000000000000000   0.058201568083851 1
force C   0.000000000000000   0.000000000000000  -0.000000000000000 1
force C   0.000000000000000  -0.000000000000000   0.000000000000000 1
force C   0.000000000000000   0.000000000000000   0.000000000000000 1
force C  -0.000000000000000  -0.000000000000000   0.000000000000000 1
force C   0.000000000000000  -0.000000000000000   0.000000000000000 1
force C   0.000000000000000   0.000000000000000  -0.000000000000000 1
force C  -0.000000000000000  -0.000000000000000   0.000000000000000 1
force C   0.000000000000000  -0.000000000000000  -0.000000000000000 1
force C   0.000000000000000   0.000000000000000   0.000000000000000 1
force C  -0.000000000000000   0.000000000000000  -0.000000000000000 1
force C   0.000000000000000   0.000000000000000  -0.000000000000000 1
force C  -0.000000000000000  -0.000000000000000  -0.000000000000000 1
force C   0.000000000000000   0.000000000000000   0.000000000000000 1
force C   0.000000000000000  -0.000000000000000   0.000000000000000 1
force C  -0.000000000000000  -0.000000000000000  -0.000000000000000 1
force C  -0.000000000000000  -0.000000000000000  -0.000000000000000 1
force O   0.000000000000000  -0.000000000000000   0.047775536016822 1
force O   0.000000000000000  -0.000000000000000  -0.047775536012971 1
force O  -0.000000000000000   0.000000000000000   0.047775536016825 1
force O   0.000000000000000   0.000000000000000  -0.047775536012971 1
force O   0.000000000000000  -0.000000000000000   0.047775536016598 1
force O   0.000000000000000  -0.000000000000000  -0.047775536012971 1
force O   0.000000000000000  -0.000000000000000   0.047775536016825 1
force O   0.000000000000000   0.000000000000000  -0.047775536012967 1
force O   0.000000000000000  -0.000000000000000   0.047775536016825 1
force O   0.000000000000000  -0.000000000000000  -0.047775536012512 1
force O  -0.000000000000000  -0.000000000000000   0.047775536016822 1
force O   0.000000000000000   0.000000000000000  -0.047775536012971 1
force O   0.000000000000000   0.000000000000000   0.047775536016822 1
force O   0.000000000000000   0.000000000000000  -0.047775536012516 1
force O   0.000000000000000  -0.000000000000000   0.047775536016822 1
force O   0.000000000000000   0.000000000000000  -0.047775536012971 1
force O  -0.000000000000000  -0.000000000000000   0.047775536016598 1
force O   0.000000000000000  -0.000000000000000  -0.047775536012971 1
force O  -0.000000000000000   0.000000000000000   0.047775536016825 1
force O  -0.000000000000000  -0.000000000000000  -0.047775536012967 1
force O  -0.000000000000000   0.000000000000000   0.047775536016825 1
force O  -0.000000000000000  -0.000000000000000  -0.047775536013198 1
force O  -0.000000000000000   0.000000000000000   0.047775536016822 1
force O  -0.000000000000000   0.000000000000000  -0.047775536012971 1
force O  -0.000000000000000  -0.000000000000000   0.047775536016825 1
force O  -0.000000000000000  -0.000000000000000  -0.047775536012743 1
force O  -0.000000000000000   0.000000000000000   0.047775536016594 1
force O   0.000000000000000   0.000000000000000  -0.047775536013194 1
force O  -0.000000000000000   0.000000000000000   0.047775536016825 1
force O   0.000000000000000  -0.000000000000000  -0.047775536012516 1
force O   0.000000000000000   0.000000000000000   0.047775536016825 1
force O   0.000000000000000  -0.000000000000000  -0.047775536013198 1

# Energy components:
   A_diel =       -0.0565423107018964
   Eewald =    29535.3217043526783527
       EH =    31982.3690936085695284
     Eloc =   -64996.1651825311928405
      Enl =      130.0619211997510547
      Exc =     -459.4928868562610660
 Exc_core =       28.5833204838979711
       KE =      876.0737125016895561
  MuShift =       -0.0111099098593334
-------------------------------------
     Etot =    -2903.3159694614346336
       TS =        0.1118043867320807
-------------------------------------
        F =    -2903.4277738481669076

IonicMinimize: Iter:   1  F: -2903.427773848166908  |grad|_K:  7.474e-04  alpha:  1.000e+00  linmin: -9.997e-01  t[s]:   2101.21

#--- Lowdin population analysis ---
# oxidation-state V +1.055 +1.055 +1.055 +1.055 +1.055 +1.055 +1.055 +1.055 +1.055 +1.055 +1.055 +1.055 +1.055 +1.055 +1.055 +1.055 +1.055 +1.055 +1.055 +1.055 +1.055 +1.055 +1.055 +1.055 +1.055 +1.055 +1.055 +1.055 +1.055 +1.055 +1.055 +1.055
# oxidation-state C -0.830 -0.830 -0.830 -0.830 -0.830 -0.830 -0.830 -0.830 -0.830 -0.830 -0.830 -0.830 -0.830 -0.830 -0.830 -0.830
# oxidation-state O -0.584 -0.584 -0.584 -0.584 -0.584 -0.584 -0.584 -0.584 -0.584 -0.584 -0.584 -0.584 -0.584 -0.584 -0.584 -0.584 -0.584 -0.584 -0.584 -0.584 -0.584 -0.584 -0.584 -0.584 -0.584 -0.584 -0.584 -0.584 -0.584 -0.584 -0.584 -0.584

	Linear fluid (dielectric constant: 78.4, screening length: 5.74355 Bohr) occupying 0.757011 of unit cell:	Completed after 10 iterations at t[s]:   2110.72

-------- Electronic minimization -----------
	Linear fluid (dielectric constant: 78.4, screening length: 5.74355 Bohr) occupying 0.757011 of unit cell:	Completed after 0 iterations at t[s]:   2119.03
	FillingsUpdate:  mu: -0.228184504  nElectrons: 672.500000
ElecMinimize: Iter:   0  F: -2903.427341832229558  |grad|_K:  3.861e-06  alpha:  1.000e+00
	Linear fluid (dielectric constant: 78.4, screening length: 5.74355 Bohr) occupying 0.757224 of unit cell:	Completed after 13 iterations at t[s]:   2139.90
	Linear fluid (dielectric constant: 78.4, screening length: 5.74355 Bohr) occupying 0.757050 of unit cell:	Completed after 13 iterations at t[s]:   2153.37
	FillingsUpdate:  mu: -0.225087851  nElectrons: 672.500000
	SubspaceRotationAdjust: set factor to 0.903
ElecMinimize: Iter:   1  F: -2903.427618431365318  |grad|_K:  3.477e-06  alpha:  1.846e-01  linmin: -9.720e-05  t[s]:   2165.73
	Linear fluid (dielectric constant: 78.4, screening length: 5.74355 Bohr) occupying 0.757080 of unit cell:	Completed after 6 iterations at t[s]:   2173.87
	Linear fluid (dielectric constant: 78.4, screening length: 5.74355 Bohr) occupying 0.757090 of unit cell:	Completed after 3 iterations at t[s]:   2184.28
	FillingsUpdate:  mu: -0.226089662  nElectrons: 672.500000
	SubspaceRotationAdjust: set factor to 0.699
ElecMinimize: Iter:   2  F: -2903.427920401258234  |grad|_K:  1.176e-06  alpha:  2.484e-01  linmin: -1.422e-05  t[s]:   2195.53
	Linear fluid (dielectric constant: 78.4, screening length: 5.74355 Bohr) occupying 0.757088 of unit cell:	Completed after 5 iterations at t[s]:   2203.50
	Linear fluid (dielectric constant: 78.4, screening length: 5.74355 Bohr) occupying 0.757089 of unit cell:	Completed after 1 iterations at t[s]:   2213.52
	FillingsUpdate:  mu: -0.226037969  nElectrons: 672.500000
	SubspaceRotationAdjust: set factor to 0.575
ElecMinimize: Iter:   3  F: -2903.427950653884636  |grad|_K:  3.536e-07  alpha:  2.217e-01  linmin: -5.060e-05  t[s]:   2224.43
	Linear fluid (dielectric constant: 78.4, screening length: 5.74355 Bohr) occupying 0.757085 of unit cell:	Completed after 3 iterations at t[s]:   2232.02
	Linear fluid (dielectric constant: 78.4, screening length: 5.74355 Bohr) occupying 0.757080 of unit cell:	Completed after 2 iterations at t[s]:   2242.17
	FillingsUpdate:  mu: -0.226191485  nElectrons: 672.500000
	SubspaceRotationAdjust: set factor to 0.61
ElecMinimize: Iter:   4  F: -2903.427956708404054  |grad|_K:  2.306e-07  alpha:  4.828e-01  linmin: -4.459e-05  t[s]:   2253.51
	Linear fluid (dielectric constant: 78.4, screening length: 5.74355 Bohr) occupying 0.757074 of unit cell:	Completed after 2 iterations at t[s]:   2260.90
	Linear fluid (dielectric constant: 78.4, screening length: 5.74355 Bohr) occupying 0.757072 of unit cell:	Completed after 1 iterations at t[s]:   2270.65
	FillingsUpdate:  mu: -0.226185798  nElectrons: 672.500000
	SubspaceRotationAdjust: set factor to 0.652
ElecMinimize: Iter:   5  F: -2903.427960086045005  |grad|_K:  1.185e-07  alpha:  6.301e-01  linmin: -6.824e-05  t[s]:   2281.85
	Linear fluid (dielectric constant: 78.4, screening length: 5.74355 Bohr) occupying 0.757069 of unit cell:	Completed after 2 iterations at t[s]:   2289.03
	Linear fluid (dielectric constant: 78.4, screening length: 5.74355 Bohr) occupying 0.757069 of unit cell:	Completed after 0 iterations at t[s]:   2298.35
	FillingsUpdate:  mu: -0.226162492  nElectrons: 672.500000
	SubspaceRotationAdjust: set factor to 0.746
ElecMinimize: Iter:   6  F: -2903.427960800080655  |grad|_K:  7.609e-08  alpha:  5.022e-01  linmin:  2.671e-05  t[s]:   2309.05
	Linear fluid (dielectric constant: 78.4, screening length: 5.74355 Bohr) occupying 0.757068 of unit cell:	Completed after 1 iterations at t[s]:   2315.93
	Linear fluid (dielectric constant: 78.4, screening length: 5.74355 Bohr) occupying 0.757068 of unit cell:	Completed after 0 iterations at t[s]:   2325.23
	FillingsUpdate:  mu: -0.226179061  nElectrons: 672.500000
	SubspaceRotationAdjust: set factor to 0.876
ElecMinimize: Iter:   7  F: -2903.427961014292578  |grad|_K:  4.297e-08  alpha:  3.849e-01  linmin: -2.229e-05  t[s]:   2336.33
	Linear fluid (dielectric constant: 78.4, screening length: 5.74355 Bohr) occupying 0.757068 of unit cell:	Completed after 0 iterations at t[s]:   2343.10
	Linear fluid (dielectric constant: 78.4, screening length: 5.74355 Bohr) occupying 0.757068 of unit cell:	Completed after 0 iterations at t[s]:   2351.48
	FillingsUpdate:  mu: -0.226179330  nElectrons: 672.500000
	SubspaceRotationAdjust: set factor to 1.03
ElecMinimize: Iter:   8  F: -2903.427961124258218  |grad|_K:  2.744e-08  alpha:  5.976e-01  linmin:  1.385e-06  t[s]:   2362.45
	Linear fluid (dielectric constant: 78.4, screening length: 5.74355 Bohr) occupying 0.757069 of unit cell:	Completed after 1 iterations at t[s]:   2369.23
	Linear fluid (dielectric constant: 78.4, screening length: 5.74355 Bohr) occupying 0.757068 of unit cell:	Completed after 0 iterations at t[s]:   2378.12
	FillingsUpdate:  mu: -0.226170406  nElectrons: 672.500000
	SubspaceRotationAdjust: set factor to 0.917
ElecMinimize: Iter:   9  F: -2903.427961131990287  |grad|_K:  2.476e-08  alpha:  2.737e-01  linmin: -2.774e-05  t[s]:   2388.80
	Linear fluid (dielectric constant: 78.4, screening length: 5.74355 Bohr) occupying 0.757069 of unit cell:	Completed after 0 iterations at t[s]:   2395.64
	Linear fluid (dielectric constant: 78.4, screening length: 5.74355 Bohr) occupying 0.757069 of unit cell:	Completed after 0 iterations at t[s]:   2404.38
	FillingsUpdate:  mu: -0.226170097  nElectrons: 672.500000
	SubspaceRotationAdjust: set factor to 1.29
ElecMinimize: Iter:  10  F: -2903.427961151738145  |grad|_K:  2.395e-08  alpha:  3.085e-01  linmin: -4.449e-07  t[s]:   2415.45
	Linear fluid (dielectric constant: 78.4, screening length: 5.74355 Bohr) occupying 0.757069 of unit cell:	Completed after 2 iterations at t[s]:   2422.35
	Linear fluid (dielectric constant: 78.4, screening length: 5.74355 Bohr) occupying 0.757069 of unit cell:	Completed after 0 iterations at t[s]:   2432.05
	FillingsUpdate:  mu: -0.226200701  nElectrons: 672.500000
	SubspaceRotationAdjust: set factor to 0.869
ElecMinimize: Iter:  11  F: -2903.427961155710364  |grad|_K:  5.655e-08  alpha:  5.200e-02  linmin:  2.813e-04  t[s]:   2442.88
ElecMinimize: 	Bad step direction: g.d > 0.
ElecMinimize: 	Undoing step.
	Linear fluid (dielectric constant: 78.4, screening length: 5.74355 Bohr) occupying 0.757069 of unit cell:	Completed after 0 iterations at t[s]:   2449.38
ElecMinimize: 	Step failed: resetting search direction.
	FillingsUpdate:  mu: -0.226200701  nElectrons: 672.500000
	SubspaceRotationAdjust: set factor to 0.656
ElecMinimize: Iter:  12  F: -2903.427961155710818  |grad|_K:  4.915e-08  alpha:  0.000e+00
ElecMinimize: Converged (|Delta F|<1.000000e-08 for 2 iters).
Setting wave functions to eigenvectors of Hamiltonian

# Ionic positions in lattice coordinates:
ion V   0.166666658916667   0.083333325633333   0.561470196040514 1
ion V   0.083333325583333   0.166666658966667   0.438513775159486 1
ion V   0.416666658916667   0.083333325633333   0.561470196040514 1
ion V   0.333333325583333   0.166666658966667   0.438513775159486 1
ion V   0.666666658916667   0.083333325633333   0.561470196040514 1
ion V   0.583333325583333   0.166666658966667   0.438513775159486 1
ion V   0.916666658916667   0.083333325633333   0.561470196040514 1
ion V   0.833333325583333   0.166666658966667   0.438513775159486 1
ion V   0.166666658916667   0.333333325633333   0.561470196040514 1
ion V   0.083333325583333   0.416666658966667   0.438513775159486 1
ion V   0.416666658916667   0.333333325633333   0.561470196040514 1
ion V   0.333333325583333   0.416666658966667   0.438513775159486 1
ion V   0.666666658916667   0.333333325633333   0.561470196040514 1
ion V   0.583333325583333   0.416666658966667   0.438513775159486 1
ion V   0.916666658916667   0.333333325633333   0.561470196040514 1
ion V   0.833333325583333   0.416666658966667   0.438513775159486 1
ion V   0.166666658916667   0.583333325633333   0.561470196040514 1
ion V   0.083333325583333   0.666666658966667   0.438513775159486 1
ion V   0.416666658916667   0.583333325633333   0.561470196040514 1
ion V   0.333333325583333   0.666666658966667   0.438513775159486 1
ion V   0.666666658916667   0.583333325633333   0.561470196040514 1
ion V   0.583333325583333   0.666666658966667   0.438513775159486 1
ion V   0.916666658916667   0.583333325633333   0.561470196040514 1
ion V   0.833333325583333   0.666666658966667   0.438513775159486 1
ion V   0.166666658916667   0.833333325633333   0.561470196040514 1
ion V   0.083333325583333   0.916666658966667   0.438513775159486 1
ion V   0.416666658916667   0.833333325633333   0.561470196040514 1
ion V   0.333333325583333   0.916666658966667   0.438513775159486 1
ion V   0.666666658916667   0.833333325633333   0.561470196040514 1
ion V   0.583333325583333   0.916666658966667   0.438513775159486 1
ion V   0.916666658916667   0.833333325633333   0.561470196040514 1
ion V   0.833333325583333   0.916666658966667   0.438513775159486 1
ion C  -0.000000007750000  -0.000000007700000   0.499991985600000 1
ion C   0.249999992250000  -0.000000007700000   0.499991985600000 1
ion C   0.499999992250000  -0.000000007700000   0.499991985600000 1
ion C   0.749999992250000  -0.000000007700000   0.499991985600000 1
ion C  -0.000000007750000   0.249999992300000   0.499991985600000 1
ion C   0.249999992250000   0.249999992300000   0.499991985600000 1
ion C   0.499999992250000   0.249999992300000   0.499991985600000 1
ion C   0.749999992250000   0.249999992300000   0.499991985600000 1
ion C  -0.000000007750000   0.499999992300000   0.499991985600000 1
ion C   0.249999992250000   0.499999992300000   0.499991985600000 1
ion C   0.499999992250000   0.499999992300000   0.499991985600000 1
ion C   0.749999992250000   0.499999992300000   0.499991985600000 1
ion C  -0.000000007750000   0.749999992300000   0.499991985600000 1
ion C   0.249999992250000   0.749999992300000   0.499991985600000 1
ion C   0.499999992250000   0.749999992300000   0.499991985600000 1
ion C   0.749999992250000   0.749999992300000   0.499991985600000 1
ion O   0.083333325583333   0.166666658966667   0.614489307020326 1
ion O   0.166666658916667   0.083333325633333   0.385494664179674 1
ion O   0.333333325583333   0.166666658966667   0.614489307020326 1
ion O   0.416666658916667   0.083333325633333   0.385494664179674 1
ion O   0.583333325583333   0.166666658966667   0.614489307020326 1
ion O   0.666666658916667   0.083333325633333   0.385494664179674 1
ion O   0.833333325583333   0.166666658966667   0.614489307020326 1
ion O   0.916666658916667   0.083333325633333   0.385494664179674 1
ion O   0.083333325583333   0.416666658966667   0.614489307020326 1
ion O   0.166666658916667   0.333333325633333   0.385494664179674 1
ion O   0.333333325583333   0.416666658966667   0.614489307020326 1
ion O   0.416666658916667   0.333333325633333   0.385494664179674 1
ion O   0.583333325583333   0.416666658966667   0.614489307020326 1
ion O   0.666666658916667   0.333333325633333   0.385494664179674 1
ion O   0.833333325583333   0.416666658966667   0.614489307020326 1
ion O   0.916666658916667   0.333333325633333   0.385494664179674 1
ion O   0.083333325583333   0.666666658966667   0.614489307020326 1
ion O   0.166666658916667   0.583333325633333   0.385494664179674 1
ion O   0.333333325583333   0.666666658966667   0.614489307020326 1
ion O   0.416666658916667   0.583333325633333   0.385494664179674 1
ion O   0.583333325583333   0.666666658966667   0.614489307020326 1
ion O   0.666666658916667   0.583333325633333   0.385494664179674 1
ion O   0.833333325583333   0.666666658966667   0.614489307020326 1
ion O   0.916666658916667   0.583333325633333   0.385494664179674 1
ion O   0.083333325583333   0.916666658966667   0.614489307020326 1
ion O   0.166666658916667   0.833333325633333   0.385494664179674 1
ion O   0.333333325583333   0.916666658966667   0.614489307020326 1
ion O   0.416666658916667   0.833333325633333   0.385494664179674 1
ion O   0.583333325583333   0.916666658966667   0.614489307020326 1
ion O   0.666666658916667   0.833333325633333   0.385494664179674 1
ion O   0.833333325583333   0.916666658966667   0.614489307020326 1
ion O   0.916666658916667   0.833333325633333   0.385494664179674 1


# Forces in Lattice coordinates:
force V  -0.000000000000000   0.000000000000000   0.005719641367946 1
force V   0.000000000000000  -0.000000000000000  -0.005719641367267 1
force V  -0.000000000000000   0.000000000000000   0.005719641367946 1
force V   0.000000000000000  -0.000000000000000  -0.005719641367948 1
force V  -0.000000000000000   0.000000000000000   0.005719641367946 1
force V   0.000000000000000  -0.000000000000000  -0.005719641367948 1
force V  -0.000000000000000   0.000000000000000   0.005719641367946 1
force V   0.000000000000000  -0.000000000000000  -0.005719641368175 1
force V  -0.000000000000000  -0.000000000000000   0.005719641367946 1
force V   0.000000000000000  -0.000000000000000  -0.005719641368175 1
force V  -0.000000000000000   0.000000000000000   0.005719641367946 1
force V   0.000000000000000  -0.000000000000000  -0.005719641367722 1
force V  -0.000000000000000   0.000000000000000   0.005719641367946 1
force V   0.000000000000000  -0.000000000000000  -0.005719641367948 1
force V  -0.000000000000000   0.000000000000000   0.005719641367946 1
force V   0.000000000000000  -0.000000000000000  -0.005719641368175 1
force V  -0.000000000000000   0.000000000000000   0.005719641367947 1
force V   0.000000000000000  -0.000000000000000  -0.005719641367948 1
force V  -0.000000000000000   0.000000000000000   0.005719641367947 1
force V   0.000000000000000  -0.000000000000000  -0.005719641368175 1
force V  -0.000000000000000   0.000000000000000   0.005719641367946 1
force V   0.000000000000000  -0.000000000000000  -0.005719641367721 1
force V  -0.000000000000000   0.000000000000000   0.005719641367947 1
force V   0.000000000000000  -0.000000000000000  -0.005719641368175 1
force V  -0.000000000000000   0.000000000000000   0.005719641367946 1
force V   0.000000000000000  -0.000000000000000  -0.005719641367948 1
force V  -0.000000000000000   0.000000000000000   0.005719641367948 1
force V   0.000000000000000  -0.000000000000000  -0.005719641368175 1
force V  -0.000000000000000   0.000000000000000   0.005719641367947 1
force V   0.000000000000000  -0.000000000000000  -0.005719641368175 1
force V  -0.000000000000000   0.000000000000000   0.005719641367946 1
force V   0.000000000000000  -0.000000000000000  -0.005719641367948 1
force C  -0.000000000000000  -0.000000000000000   0.000000000000000 1
force C  -0.000000000000000  -0.000000000000000  -0.000000000000000 1
force C   0.000000000000000  -0.000000000000000  -0.000000000000000 1
force C  -0.000000000000000   0.000000000000000  -0.000000000000000 1
force C  -0.000000000000000   0.000000000000000   0.000000000000000 1
force C  -0.000000000000000   0.000000000000000  -0.000000000000000 1
force C  -0.000000000000000   0.000000000000000   0.000000000000000 1
force C  -0.000000000000000   0.000000000000000   0.000000000000000 1
force C   0.000000000000000   0.000000000000000   0.000000000000000 1
force C   0.000000000000000   0.000000000000000   0.000000000000000 1
force C  -0.000000000000000  -0.000000000000000  -0.000000000000000 1
force C  -0.000000000000000  -0.000000000000000   0.000000000000000 1
force C  -0.000000000000000   0.000000000000000   0.000000000000000 1
force C   0.000000000000000   0.000000000000000  -0.000000000000000 1
force C  -0.000000000000000   0.000000000000000   0.000000000000000 1
force C  -0.000000000000000  -0.000000000000000  -0.000000000000000 1
force O  -0.000000000000000   0.000000000000000   0.000207915037670 1
force O   0.000000000000000   0.000000000000000  -0.000207915040200 1
force O   0.000000000000000   0.000000000000000   0.000207915038128 1
force O   0.000000000000000  -0.000000000000000  -0.000207915040420 1
force O  -0.000000000000000   0.000000000000000   0.000207915037677 1
force O   0.000000000000000   0.000000000000000  -0.000207915040420 1
force O  -0.000000000000000   0.000000000000000   0.000207915038132 1
force O   0.000000000000000  -0.000000000000000  -0.000207915040420 1
force O  -0.000000000000000   0.000000000000000   0.000207915038132 1
force O   0.000000000000000  -0.000000000000000  -0.000207915040420 1
force O  -0.000000000000000   0.000000000000000   0.000207915038132 1
force O   0.000000000000000  -0.000000000000000  -0.000207915040196 1
force O  -0.000000000000000   0.000000000000000   0.000207915038590 1
force O  -0.000000000000000   0.000000000000000  -0.000207915040420 1
force O  -0.000000000000000   0.000000000000000   0.000207915038132 1
force O  -0.000000000000000  -0.000000000000000  -0.000207915040189 1
force O   0.000000000000000   0.000000000000000   0.000207915037677 1
force O   0.000000000000000  -0.000000000000000  -0.000207915040193 1
force O  -0.000000000000000   0.000000000000000   0.000207915038132 1
force O   0.000000000000000   0.000000000000000  -0.000207915040420 1
force O  -0.000000000000000   0.000000000000000   0.000207915037674 1
force O   0.000000000000000   0.000000000000000  -0.000207915040196 1
force O   0.000000000000000   0.000000000000000   0.000207915038128 1
force O  -0.000000000000000  -0.000000000000000  -0.000207915040193 1
force O   0.000000000000000   0.000000000000000   0.000207915038132 1
force O   0.000000000000000   0.000000000000000  -0.000207915040420 1
force O  -0.000000000000000   0.000000000000000   0.000207915038136 1
force O   0.000000000000000   0.000000000000000  -0.000207915040420 1
force O  -0.000000000000000   0.000000000000000   0.000207915038132 1
force O   0.000000000000000  -0.000000000000000  -0.000207915040420 1
force O  -0.000000000000000   0.000000000000000   0.000207915038132 1
force O   0.000000000000000   0.000000000000000  -0.000207915040427 1

# Energy components:
   A_diel =       -0.0565428078503863
   Eewald =    29536.6149407375705778
       EH =    31983.1973765755137720
     Eloc =   -64998.2138406180893071
      Enl =      130.0363772948325902
      Exc =     -459.4627173716282869
 Exc_core =       28.5833443667571103
       KE =      875.9946870480965799
  MuShift =       -0.0111099098593334
-------------------------------------
     Etot =    -2903.3174846846582113
       TS =        0.1104764710524507
-------------------------------------
        F =    -2903.4279611557108183

IonicMinimize: Iter:   2  F: -2903.427961155710818  |grad|_K:  5.681e-05  alpha:  1.000e+00  linmin:  7.139e-01  t[s]:   2471.25
IonicMinimize: Converged (|grad|_K<1.000000e-04).

#--- Lowdin population analysis ---
# oxidation-state V +1.054 +1.054 +1.054 +1.054 +1.054 +1.054 +1.054 +1.054 +1.054 +1.054 +1.054 +1.054 +1.054 +1.054 +1.054 +1.054 +1.054 +1.054 +1.054 +1.054 +1.054 +1.054 +1.054 +1.054 +1.054 +1.054 +1.054 +1.054 +1.054 +1.054 +1.054 +1.054
# oxidation-state C -0.829 -0.829 -0.829 -0.829 -0.829 -0.829 -0.829 -0.829 -0.829 -0.829 -0.829 -0.829 -0.829 -0.829 -0.829 -0.829
# oxidation-state O -0.583 -0.583 -0.583 -0.583 -0.583 -0.583 -0.583 -0.583 -0.583 -0.583 -0.583 -0.583 -0.583 -0.583 -0.583 -0.583 -0.583 -0.583 -0.583 -0.583 -0.583 -0.583 -0.583 -0.583 -0.583 -0.583 -0.583 -0.583 -0.583 -0.583 -0.583 -0.583


Dumping 'NbTe2.fillings' ... done
Dumping 'NbTe2.wfns' ... done
Dumping 'NbTe2.fluidState' ... done
Dumping 'NbTe2.ionpos' ... done
Dumping 'NbTe2.eigenvals' ... done
End date and time: Thu Apr 15 17:56:40 2021  (Duration: 0-0:41:14.57)
Done!
