
*************** JDFTx 1.5.0  ***************


*************** JDFTx 1.5.0  ***************

Start date and time: Sun Jul 12 20:35:48 2020
Executable jdftx_gpu with command-line: -i Charged.in -o Charged.out
Running on hosts (process indices):  amax (0-1)
Divided in process groups (process indices):  0 (0)  1 (1)
gpuInit: Found compatible cuda device 0 'Tesla K80'
gpuInit: Found compatible cuda device 1 'Tesla K80'
gpuInit: Selected device 0
Resource initialization completed at t[s]:     10.98
Run totals: 2 processes, 24 threads, 2 GPUs


Input parsed successfully to the following command list (including defaults):

basis kpoint-dependent
cache-projectors no
coords-type Lattice
core-overlap-check none
coulomb-interaction Slab 001
coulomb-truncation-embed 0 0 0.5
davidson-band-ratio 1.1
dump End State
dump-name NbTe2.$VAR
elec-cutoff 20 100
elec-eigen-algo Davidson
elec-ex-corr gga-PBE
elec-smearing Gauss 0.0073499
electronic-minimize  \
	dirUpdateScheme      FletcherReeves \
	linminMethod         DirUpdateRecommended \
	nIterations          500 \
	history              15 \
	knormThreshold       0 \
	energyDiffThreshold  1e-08 \
	nEnergyDiff          2 \
	alphaTstart          1 \
	alphaTmin            1e-10 \
	updateTestStepSize   yes \
	alphaTreduceFactor   0.1 \
	alphaTincreaseFactor 3 \
	nAlphaAdjustMax      3 \
	wolfeEnergy          0.0001 \
	wolfeGradient        0.9 \
	fdTest               no
exchange-regularization WignerSeitzTruncated
fluid LinearPCM 298.000000 1.013250
fluid-anion F- 1 MeanFieldLJ \
	epsBulk 1 \
	pMol 0 \
	epsInf 1 \
	Pvap 0 \
	sigmaBulk 0 \
	Rvdw 2.24877 \
	Res 0 \
	tauNuc 343133
fluid-cation Na+ 1 MeanFieldLJ \
	epsBulk 1 \
	pMol 0 \
	epsInf 1 \
	Pvap 0 \
	sigmaBulk 0 \
	Rvdw 2.19208 \
	Res 0 \
	tauNuc 343133
fluid-ex-corr lda-TF lda-PZ
fluid-gummel-loop 10 1.000000e-05
fluid-minimize  \
	dirUpdateScheme      PolakRibiere \
	linminMethod         DirUpdateRecommended \
	nIterations          400 \
	history              15 \
	knormThreshold       1e-11 \
	energyDiffThreshold  0 \
	nEnergyDiff          2 \
	alphaTstart          1 \
	alphaTmin            1e-10 \
	updateTestStepSize   yes \
	alphaTreduceFactor   0.1 \
	alphaTincreaseFactor 3 \
	nAlphaAdjustMax      6 \
	wolfeEnergy          0.0001 \
	wolfeGradient        0.9 \
	fdTest               no
fluid-solvent H2O 55.338 ScalarEOS \
	epsBulk 78.4 \
	pMol 0.92466 \
	epsInf 1.77 \
	Pvap 1.06736e-10 \
	sigmaBulk 4.62e-05 \
	Rvdw 2.61727 \
	Res 1.42 \
	tauNuc 343133 \
	poleEl 15 7 1
forces-output-coords Positions
initial-state NbTe2.$VAR
ion Mn   0.332731926076709  -0.000009965335930   0.500001369490486 0
ion Mn   0.000188858805733   0.500007379152293   0.500001907595891 0
ion Mn   0.666063795606023   0.000014377143345   0.500009079265215 0
ion Mn   0.333512886203484   0.500016685972462   0.500003064264151 0
ion Mn   0.999383009752197   0.000002275984406   0.500003670915429 0
ion Mn   0.666835733400282   0.500011281334794   0.500004256229994 0
ion Sb   0.166778443831345   0.297674883615830   0.616376003149675 0
ion Sb   0.166887374185579   0.702423394417107   0.383628936467138 0
ion Sb   0.500107101651037   0.297698975146059   0.616373041058065 0
ion Sb   0.500254154770094   0.702226445755512   0.383611473179659 0
ion Sb   0.833443288670234   0.297679866250972   0.616375969191309 0
ion Sb   0.833593854370031   0.702225708908804   0.383615660662781 0
ion Se   0.000112265800751   0.246507997490420   0.530198229167924 0
ion Se   0.166899403446928   0.465920647445779   0.410202227471489 0
ion Se   0.000275245354870   0.753523417219431   0.469798643134026 0
ion Se   0.166802913694104   0.534130628652006   0.589804725140370 0
ion Se   0.333451268704121   0.246506136876042   0.530202973542590 0
ion Se   0.500238420036744   0.465824404562720   0.410163558070658 0
ion Se   0.333644793493073   0.753526466328526   0.469785656533967 0
ion Se   0.500126060610363   0.534126433801202   0.589806889854255 0
ion Se   0.666759607952906   0.246507456084950   0.530208514270474 0
ion Se   0.833574456539567   0.465817914636995   0.410165358781553 0
ion Se   0.666967126651867   0.753510102607698   0.469782815999134 0
ion Se   0.833473456346534   0.534136949652690   0.589801917393855 0
ion I   0.166394963783106   0.938578787720750   0.595818626984929 0
ion I   0.166236219327200   0.061415199005360   0.404203226916371 0
ion I   0.499734068784714   0.938580846074821   0.595821650328500 0
ion I   0.499572240781902   0.061410033579473   0.404203512457763 0
ion I   0.833056471678762   0.938582675125211   0.595822156802073 0
ion I   0.832900532689758   0.061422576790272   0.404204609680276 0
ion-species GBRV/$ID_pbe.uspp
ion-width Ecut
ionic-minimize  \
	dirUpdateScheme      L-BFGS \
	linminMethod         DirUpdateRecommended \
	nIterations          0 \
	history              15 \
	knormThreshold       0.0001 \
	energyDiffThreshold  1e-06 \
	nEnergyDiff          2 \
	alphaTstart          1 \
	alphaTmin            1e-10 \
	updateTestStepSize   yes \
	alphaTreduceFactor   0.1 \
	alphaTincreaseFactor 3 \
	nAlphaAdjustMax      3 \
	wolfeEnergy          0.0001 \
	wolfeGradient        0.9 \
	fdTest               no
kpoint   0.000000000000   0.000000000000   0.000000000000  1.00000000000000
kpoint-folding 3 3 1 
latt-move-scale 1 1 1
latt-scale 1 1 1 
lattice Triclinic 22.1353 19.893 38.8989 90 90 90
lattice-minimize  \
	dirUpdateScheme      L-BFGS \
	linminMethod         DirUpdateRecommended \
	nIterations          0 \
	history              15 \
	knormThreshold       0 \
	energyDiffThreshold  1e-06 \
	nEnergyDiff          2 \
	alphaTstart          1 \
	alphaTmin            1e-10 \
	updateTestStepSize   yes \
	alphaTreduceFactor   0.1 \
	alphaTincreaseFactor 3 \
	nAlphaAdjustMax      3 \
	wolfeEnergy          0.0001 \
	wolfeGradient        0.9 \
	fdTest               no
lcao-params -1 1e-06 0.0073499
pcm-variant CANDLE
spintype no-spin
subspace-rotation-factor 1 yes
symmetries automatic
symmetry-threshold 0.0001
target-mu -0.24475 no




---------- Setting up symmetries ----------

Found 8 point-group symmetries of the bravais lattice
Found 1 space-group symmetries with basis
Applied RMS atom displacement 0 bohrs to make symmetries exact.

---------- Initializing the Grid ----------
R = 
[    22.1353          0          0  ]
[          0     19.893          0  ]
[          0          0    38.8989  ]
unit cell volume = 17128.6
G =
[   0.283854          0          0  ]
[          0    0.31585          0  ]
[          0          0   0.161526  ]
Minimum fftbox size, Smin = [  100  92  176  ]
Chosen fftbox size, S = [  100  96  180  ]

---------- Initializing tighter grid for wavefunction operations ----------
R = 
[    22.1353          0          0  ]
[          0     19.893          0  ]
[          0          0    38.8989  ]
unit cell volume = 17128.6
G =
[   0.283854          0          0  ]
[          0    0.31585          0  ]
[          0          0   0.161526  ]
Minimum fftbox size, Smin = [  92  84  160  ]
Chosen fftbox size, S = [  96  84  160  ]

---------- Exchange Correlation functional ----------
Initalized PBE GGA exchange.
Initalized PBE GGA correlation.

---------- Setting up pseudopotentials ----------
Width of ionic core gaussian charges (only for fluid interactions / plotting) set to 0.397384

Reading pseudopotential file '/home/guoxy/vasp/jdftx-1.5.0/build/pseudopotentials/GBRV/mn_pbe.uspp':
  Title: Mn.  Created by USPP 7.3.6 on 16-6-15
  Reference state energy: -105.136484.  15 valence electrons in orbitals:
    |300>  occupation: 2  eigenvalue: -3.300080
    |310>  occupation: 6  eigenvalue: -2.150696
    |400>  occupation: 1.5  eigenvalue: -0.307943
    |320>  occupation: 5  eigenvalue: -0.391818
    |410>  occupation: 0  eigenvalue: -0.152105
  lMax: 2  lLocal: 3  QijEcut: 6
  6 projectors sampled on a log grid with 585 points:
    l: 0  eig: -3.300083  rCut: 1.45
    l: 0  eig: -0.307946  rCut: 1.45
    l: 1  eig: -2.150696  rCut: 1.45
    l: 1  eig: -0.152108  rCut: 1.45
    l: 2  eig: -0.391817  rCut: 1.7
    l: 2  eig: 0.500000  rCut: 1.7
  Partial core density with radius 0.65
  Transforming core density to a uniform radial grid of dG=0.02 with 1273 points.
  Transforming local potential to a uniform radial grid of dG=0.02 with 1273 points.
  Transforming nonlocal projectors to a uniform radial grid of dG=0.02 with 432 points.
  Transforming density augmentations to a uniform radial grid of dG=0.02 with 1273 points.
  Transforming atomic orbitals to a uniform radial grid of dG=0.02 with 432 points.
  Core radius for overlap checks: 1.70 bohrs.

Reading pseudopotential file '/home/guoxy/vasp/jdftx-1.5.0/build/pseudopotentials/GBRV/sb_pbe.uspp':
  Title: Sb.  Created by USPP 7.3.6 on 1-4-15
  Reference state energy: -92.019396.  15 valence electrons in orbitals:
    |420>  occupation: 10  eigenvalue: -1.543740
    |500>  occupation: 2  eigenvalue: -0.758471
    |510>  occupation: 2  eigenvalue: -0.440746
  lMax: 2  lLocal: 3  QijEcut: 6
  6 projectors sampled on a log grid with 721 points:
    l: 0  eig: -0.758469  rCut: 1.7
    l: 0  eig: 0.000000  rCut: 1.7
    l: 1  eig: -0.440746  rCut: 1.8
    l: 1  eig: 1.000000  rCut: 1.8
    l: 2  eig: -1.543739  rCut: 1.7
    l: 2  eig: 0.250000  rCut: 1.7
  Partial core density with radius 1.1
  Transforming core density to a uniform radial grid of dG=0.02 with 1273 points.
  Transforming local potential to a uniform radial grid of dG=0.02 with 1273 points.
  Transforming nonlocal projectors to a uniform radial grid of dG=0.02 with 432 points.
  Transforming density augmentations to a uniform radial grid of dG=0.02 with 1273 points.
  Transforming atomic orbitals to a uniform radial grid of dG=0.02 with 432 points.
  Core radius for overlap checks: 2.10 bohrs.

Reading pseudopotential file '/home/guoxy/vasp/jdftx-1.5.0/build/pseudopotentials/GBRV/se_pbe.uspp':
  Title: Se.  Created by USPP 7.3.6 on 14-9-2013
  Reference state energy: -21.672887.  6 valence electrons in orbitals:
    |400>  occupation: 2  eigenvalue: -0.635284
    |410>  occupation: 4  eigenvalue: -0.239295
  lMax: 2  lLocal: 3  QijEcut: 5
  6 projectors sampled on a log grid with 625 points:
    l: 0  eig: -0.635278  rCut: 1.5
    l: 0  eig: 0.500000  rCut: 1.5
    l: 1  eig: -0.239295  rCut: 1.5
    l: 1  eig: 0.500000  rCut: 1.5
    l: 2  eig: 0.000000  rCut: 1.8
    l: 2  eig: 1.000000  rCut: 1.8
  Partial core density with radius 1.2
  Transforming core density to a uniform radial grid of dG=0.02 with 1273 points.
  Transforming local potential to a uniform radial grid of dG=0.02 with 1273 points.
  Transforming nonlocal projectors to a uniform radial grid of dG=0.02 with 432 points.
  Transforming density augmentations to a uniform radial grid of dG=0.02 with 1273 points.
  Transforming atomic orbitals to a uniform radial grid of dG=0.02 with 432 points.
  Core radius for overlap checks: 1.80 bohrs.

Reading pseudopotential file '/home/guoxy/vasp/jdftx-1.5.0/build/pseudopotentials/GBRV/i_pbe.uspp':
  Title: I.  Created by USPP 7.3.6 on 14-9-2013
  Reference state energy: -32.770235.  7 valence electrons in orbitals:
    |500>  occupation: 2  eigenvalue: -0.639712
    |510>  occupation: 5  eigenvalue: -0.260406
  lMax: 2  lLocal: 3  QijEcut: 5
  6 projectors sampled on a log grid with 725 points:
    l: 0  eig: -0.639710  rCut: 1.9
    l: 0  eig: 0.000000  rCut: 1.9
    l: 1  eig: -0.260404  rCut: 2
    l: 1  eig: 0.000000  rCut: 2
    l: 2  eig: -0.500000  rCut: 2.45
    l: 2  eig: 0.500000  rCut: 2.45
  Partial core density with radius 1.3
  Transforming core density to a uniform radial grid of dG=0.02 with 1273 points.
  Transforming local potential to a uniform radial grid of dG=0.02 with 1273 points.
  Transforming nonlocal projectors to a uniform radial grid of dG=0.02 with 432 points.
  Transforming density augmentations to a uniform radial grid of dG=0.02 with 1273 points.
  Transforming atomic orbitals to a uniform radial grid of dG=0.02 with 432 points.
  Core radius for overlap checks: 2.45 bohrs.

Initialized 4 species with 30 total atoms.

Folded 1 k-points by 3x3x1 to 9 k-points.

---------- Setting up k-points, bands, fillings ----------
Adding inversion symmetry to k-mesh for non-inversion-symmetric unit cell.
Reduced to 5 k-points under symmetry. 
Computing the number of bands and number of electrons
Reading initial fillings from file NbTe2.fillings.
nElectrons: 294.000000   nBands: 204   nStates: 5

----- Setting up reduced wavefunction bases (one per k-point) -----
average nbasis = 73169.222 , ideal nbasis = 73174.690

---------- Setting up coulomb interaction ----------
Fluid mode embedding: using embedded box, but periodic Coulomb kernel.
(Fluid response is responsible for (approximate) separation between periodic images.)
Setting up double-sized grid for truncated Coulomb potentials:
R = 
[    22.1353          0          0  ]
[          0     19.893          0  ]
[          0          0    77.7978  ]
unit cell volume = 34257.2
G =
[   0.283854          0          0  ]
[          0    0.31585          0  ]
[          0          0  0.0807631  ]
Chosen fftbox size, S = [  100  96  360  ]
Integer grid location selected as the embedding center:
   Grid: [  0  0  90  ]
   Lattice: [  0  0  0.5  ]
   Cartesian: [  0  0  19.4494  ]
Constructing Wigner-Seitz cell: 6 faces (6 quadrilaterals, 0 hexagons)
Range-separation parameter for embedded mesh potentials due to point charges: 0.593544 bohrs.

Initializing van der Waals corrections
	NOTE: vdW corrections apply only for interactions with fluid.
	Mn:  C6:  187.33 Eh-a0^6  R0: 2.952 a0
	Sb:  C6:  666.75 Eh-a0^6  R0: 3.555 a0
	Se:  C6:  219.24 Eh-a0^6  R0: 3.347 a0
	 I:  C6:  546.38 Eh-a0^6  R0: 3.575 a0

---------- Setting up ewald sum ----------
Optimum gaussian width for ewald sums = 7.350335 bohr.
Real space sum over 605 unit cells with max indices [  5  5  2  ]
Reciprocal space sum over 5915 terms with max indices [  6  6  17  ]

---------- Allocating electronic variables ----------
Initializing wave functions:  reading from 'NbTe2.wfns'
----- createFluidSolver() ----- (Fluid-side solver setup)
   Initializing fluid molecule 'H2O'
     Initializing site 'O'
       Electron density: proportional to exp(-r/0.36935)*erfc((r-0.51523)/0.36823) with norm 6.826
       Charge density: gaussian nuclear width 0.478731 with net site charge 0.826
       Polarizability: cuspless exponential with width 0.32 and norm 3.73
       Hard sphere radius: 2.57003 bohrs
       Positions in reference frame:
         [ +0.000000 +0.000000 +0.000000 ]
     Initializing site 'H'
       Electron density: proportional to exp(-r/0.34641)*erfc((r-0)/0.390882) with norm 0.587
       Charge density: gaussian nuclear width 0.377945 with net site charge -0.413
       Polarizability: cuspless exponential with width 0.39 and norm 3.3
       Positions in reference frame:
         [ +0.000000 -1.441945 +1.122523 ]
         [ +0.000000 +1.441945 +1.122523 ]
     Net charge: 0   dipole magnitude: 0.927204
     Initializing spherical shell mfKernel with radius 2.61727 Bohr
     deltaS corrections:
       site 'O': -7.54299
       site 'H': -6.83917
   Initializing fluid molecule 'Na+'
     Initializing site 'Na'
       Electron density: proportional to exp(-r/0.19682)*erfc((r-0.71491)/0.41314) with norm 8.1383
       Charge density: gaussian nuclear width 0.365347 with net site charge -1
       Hard sphere radius: 1.86327 bohrs
       Positions in reference frame:
         [ +0.000000 +0.000000 +0.000000 ]
     Net charge: -1   dipole magnitude: 0
     Initializing gaussian mfKernel with width: 1.55004 Bohr
     deltaS corrections:
       site 'Na': -22.3555
   Initializing fluid molecule 'F-'
     Initializing site 'F'
       Electron density: proportional to exp(-r/0.38886)*erfc((r-0)/0.438782) with norm 8
       Charge density: gaussian nuclear width 0.374796 with net site charge 1
       Hard sphere radius: 2.39995 bohrs
       Positions in reference frame:
         [ +0.000000 +0.000000 +0.000000 ]
     Net charge: 1   dipole magnitude: 0
     Initializing gaussian mfKernel with width: 1.59012 Bohr
     deltaS corrections:
       site 'F': -9.04335

Correction to mu due to finite nuclear width = -0.0085152
   Cavity determined by nc: 0.00142 and sigma: 0.707107
   Nonlocal vdW cavity from gaussian model electron density with norm = 8 and sigma = 0.993594 bohr
   Charge asymmetry in cavity with sensitivity pCavity = 36.5 e-bohr/Eh
   Electrostatic cavity expanded by eta = 1.46 bohrs
   Weighted density cavitation model constrained by Nbulk: 0.0049383 bohr^-3, Pvap: 3.14029 kPa, Rvdw: 2.61727 bohr and sigmaBulk: 4.62e-05 Eh/bohr^2 at T: 298 K.
   Weighted density dispersion model using vdW pair potentials with single solvent site with sqrtC6eff: 0.77 SI.
Reading fluid state from 'NbTe2.fluidState'


---- Citations for features of the code used in this run ----

   Software package:
      R. Sundararaman, K. Letchworth-Weaver, K.A. Schwarz, D. Gunceler, Y. Ozhabes and T.A. Arias, 'JDFTx: software for joint density-functional theory', SoftwareX 6, 278 (2017)

   gga-PBE exchange-correlation functional:
      J.P. Perdew, K. Burke and M. Ernzerhof, Phys. Rev. Lett. 77, 3865 (1996)

   Pseudopotentials:
      KF Garrity, JW Bennett, KM Rabe and D Vanderbilt, Comput. Mater. Sci. 81, 446 (2014)

   Truncated Coulomb potentials:
      R. Sundararaman and T.A. Arias, Phys. Rev. B 87, 165122 (2013)

   Van der Waals correction pair-potentials:
      S. Grimme, J. Comput. Chem. 27, 1787 (2006)

   Charge-asymmetric nonlocally-determined local-electric (CANDLE) solvation model:
      R. Sundararaman and W.A. Goddard III, J. Chem. Phys. 142, 064107 (2015)

   Total energy minimization with Auxiliary Hamiltonian:
      C. Freysoldt, S. Boeck, and J. Neugebauer, Phys. Rev. B 79, 241103(R) (2009)

   Grand-canonical (fixed-potential) DFT:
      R. Sundararaman, W. A. Goddard III and T. A. Arias, J. Chem. Phys. 146, 114104 (2017)

This list may not be complete. Please suggest additional citations or
report any other bugs at https://github.com/shankar1729/jdftx/issues

Initialization completed successfully at t[s]:     17.64

Shifting auxilliary hamiltonian by -0.097676 to set nElectrons=294.000000
	Linear fluid (dielectric constant: 78.4, screening length: 5.74355 Bohr) occupying 0.756982 of unit cell:	Completed after 8 iterations at t[s]:     21.59

-------- Electronic minimization -----------
	Linear fluid (dielectric constant: 78.4, screening length: 5.74355 Bohr) occupying 0.756982 of unit cell:	Completed after 0 iterations at t[s]:     25.70
	FillingsUpdate:  mu: -0.244750400  nElectrons: 294.000000
ElecMinimize: Iter:   0  G: -1239.828161634919752  |grad|_K:  2.736e-04  alpha:  1.000e+00
	Linear fluid (dielectric constant: 78.4, screening length: 5.74355 Bohr) occupying 0.766768 of unit cell:	Completed after 27 iterations at t[s]:     41.28
	Linear fluid (dielectric constant: 78.4, screening length: 5.74355 Bohr) occupying 0.757243 of unit cell:	Completed after 27 iterations at t[s]:     48.90
ElecMinimize: 	Step increased G by 9.247044e-01, reducing alpha to 3.918461e-03.
	Linear fluid (dielectric constant: 78.4, screening length: 5.74355 Bohr) occupying 0.756843 of unit cell:	Completed after 20 iterations at t[s]:     61.85
	FillingsUpdate:  mu: -0.244750400  nElectrons: 293.551211
	SubspaceRotationAdjust: set factor to 0.506
ElecMinimize: Iter:   1  G: -1239.860103376332063  |grad|_K:  1.289e-04  alpha:  3.918e-03  linmin: -6.958e-02  t[s]:     68.39
	Linear fluid (dielectric constant: 78.4, screening length: 5.74355 Bohr) occupying 0.756892 of unit cell:	Completed after 15 iterations at t[s]:     75.63
	Linear fluid (dielectric constant: 78.4, screening length: 5.74355 Bohr) occupying 0.756913 of unit cell:	Completed after 14 iterations at t[s]:     82.11
	FillingsUpdate:  mu: -0.244750400  nElectrons: 293.122473
	SubspaceRotationAdjust: set factor to 0.312
ElecMinimize: Iter:   2  G: -1239.870068688648416  |grad|_K:  5.930e-05  alpha:  5.558e-03  linmin:  2.847e-04  t[s]:     88.67
	Linear fluid (dielectric constant: 78.4, screening length: 5.74355 Bohr) occupying 0.756953 of unit cell:	Completed after 11 iterations at t[s]:     95.66
ElecMinimize: 	Predicted alpha/alphaT>3.000000, increasing alphaT to 1.667542e-02.
	Linear fluid (dielectric constant: 78.4, screening length: 5.74355 Bohr) occupying 0.757031 of unit cell:	Completed after 12 iterations at t[s]:    102.05
ElecMinimize: 	Predicted alpha/alphaT>3.000000, increasing alphaT to 5.002625e-02.
	Linear fluid (dielectric constant: 78.4, screening length: 5.74355 Bohr) occupying 0.757261 of unit cell:	Completed after 15 iterations at t[s]:    108.63
	Linear fluid (dielectric constant: 78.4, screening length: 5.74355 Bohr) occupying 0.757350 of unit cell:	Completed after 13 iterations at t[s]:    115.18
	FillingsUpdate:  mu: -0.244750400  nElectrons: 292.341872
	SubspaceRotationAdjust: set factor to 0.169
ElecMinimize: Iter:   3  G: -1239.886538525659716  |grad|_K:  1.120e-04  alpha:  6.325e-02  linmin: -1.290e-04  t[s]:    121.50
	Linear fluid (dielectric constant: 78.4, screening length: 5.74355 Bohr) occupying 0.758867 of unit cell:	Completed after 18 iterations at t[s]:    128.69
	Linear fluid (dielectric constant: 78.4, screening length: 5.74355 Bohr) occupying 0.758631 of unit cell:	Completed after 12 iterations at t[s]:    135.19
	FillingsUpdate:  mu: -0.244750400  nElectrons: 291.289326
	SubspaceRotationAdjust: set factor to 0.11
	SubspaceRotationAdjust: resetting CG because factor has changed by 0.109868
	Linear fluid (dielectric constant: 78.4, screening length: 5.74355 Bohr) occupying 0.758631 of unit cell:	Completed after 0 iterations at t[s]:    144.98
ElecMinimize: 	State modified externally: resetting search direction.
ElecMinimize: Iter:   4  G: -1239.936316854941424  |grad|_K:  5.451e-05  alpha:  5.276e-02
	Linear fluid (dielectric constant: 78.4, screening length: 5.74355 Bohr) occupying 0.758747 of unit cell:	Completed after 16 iterations at t[s]:    158.95
	Linear fluid (dielectric constant: 78.4, screening length: 5.74355 Bohr) occupying 0.758826 of unit cell:	Completed after 15 iterations at t[s]:    165.75
	FillingsUpdate:  mu: -0.244750400  nElectrons: 291.757666
	SubspaceRotationAdjust: set factor to 0.0432
ElecMinimize: Iter:   5  G: -1239.956204237391148  |grad|_K:  3.316e-05  alpha:  8.886e-02  linmin: -1.211e-03  t[s]:    172.11
	Linear fluid (dielectric constant: 78.4, screening length: 5.74355 Bohr) occupying 0.759075 of unit cell:	Completed after 9 iterations at t[s]:    178.83
	Linear fluid (dielectric constant: 78.4, screening length: 5.74355 Bohr) occupying 0.759277 of unit cell:	Completed after 12 iterations at t[s]:    185.32
	FillingsUpdate:  mu: -0.244750400  nElectrons: 291.658341
	SubspaceRotationAdjust: set factor to 0.0441
ElecMinimize: Iter:   6  G: -1239.969705984518214  |grad|_K:  1.828e-05  alpha:  1.613e-01  linmin: -1.595e-04  t[s]:    191.88
	Linear fluid (dielectric constant: 78.4, screening length: 5.74355 Bohr) occupying 0.759645 of unit cell:	Completed after 14 iterations at t[s]:    198.93
	Linear fluid (dielectric constant: 78.4, screening length: 5.74355 Bohr) occupying 0.760232 of unit cell:	Completed after 15 iterations at t[s]:    205.58
	FillingsUpdate:  mu: -0.244750400  nElectrons: 291.638539
	SubspaceRotationAdjust: set factor to 0.0388
ElecMinimize: Iter:   7  G: -1239.980217708989130  |grad|_K:  2.173e-05  alpha:  4.184e-01  linmin: -1.492e-04  t[s]:    212.11
	Linear fluid (dielectric constant: 78.4, screening length: 5.74355 Bohr) occupying 0.762074 of unit cell:	Completed after 16 iterations at t[s]:    219.25
	Linear fluid (dielectric constant: 78.4, screening length: 5.74355 Bohr) occupying 0.762379 of unit cell:	Completed after 10 iterations at t[s]:    225.63
	FillingsUpdate:  mu: -0.244750400  nElectrons: 291.244306
	SubspaceRotationAdjust: set factor to 0.0454
ElecMinimize: Iter:   8  G: -1239.997561290366775  |grad|_K:  1.576e-05  alpha:  4.881e-01  linmin: -1.608e-04  t[s]:    232.30
	Linear fluid (dielectric constant: 78.4, screening length: 5.74355 Bohr) occupying 0.763811 of unit cell:	Completed after 17 iterations at t[s]:    239.63
	Linear fluid (dielectric constant: 78.4, screening length: 5.74355 Bohr) occupying 0.763137 of unit cell:	Completed after 15 iterations at t[s]:    246.25
	FillingsUpdate:  mu: -0.244750400  nElectrons: 290.927270
	SubspaceRotationAdjust: set factor to 0.0365
ElecMinimize: Iter:   9  G: -1240.002374646486714  |grad|_K:  1.422e-05  alpha:  2.565e-01  linmin: -6.486e-05  t[s]:    252.81
	Linear fluid (dielectric constant: 78.4, screening length: 5.74355 Bohr) occupying 0.763878 of unit cell:	Completed after 12 iterations at t[s]:    259.62
	Linear fluid (dielectric constant: 78.4, screening length: 5.74355 Bohr) occupying 0.764587 of unit cell:	Completed after 13 iterations at t[s]:    266.21
	FillingsUpdate:  mu: -0.244750400  nElectrons: 290.757894
	SubspaceRotationAdjust: set factor to 0.0384
ElecMinimize: Iter:  10  G: -1240.010105934075682  |grad|_K:  1.312e-05  alpha:  5.095e-01  linmin: -5.557e-05  t[s]:    272.82
	Linear fluid (dielectric constant: 78.4, screening length: 5.74355 Bohr) occupying 0.765759 of unit cell:	Completed after 16 iterations at t[s]:    280.08
	Linear fluid (dielectric constant: 78.4, screening length: 5.74355 Bohr) occupying 0.765391 of unit cell:	Completed after 12 iterations at t[s]:    286.54
	FillingsUpdate:  mu: -0.244750400  nElectrons: 290.595190
	SubspaceRotationAdjust: set factor to 0.0377
ElecMinimize: Iter:  11  G: -1240.014556859002141  |grad|_K:  1.126e-05  alpha:  3.447e-01  linmin:  1.504e-06  t[s]:    293.17
	Linear fluid (dielectric constant: 78.4, screening length: 5.74355 Bohr) occupying 0.765901 of unit cell:	Completed after 16 iterations at t[s]:    300.32
	Linear fluid (dielectric constant: 78.4, screening length: 5.74355 Bohr) occupying 0.766142 of unit cell:	Completed after 12 iterations at t[s]:    306.75
	FillingsUpdate:  mu: -0.244750400  nElectrons: 290.311800
	SubspaceRotationAdjust: set factor to 0.0337
ElecMinimize: Iter:  12  G: -1240.019439713315478  |grad|_K:  1.070e-05  alpha:  5.160e-01  linmin:  5.898e-05  t[s]:    313.31
	Linear fluid (dielectric constant: 78.4, screening length: 5.74355 Bohr) occupying 0.766664 of unit cell:	Completed after 14 iterations at t[s]:    320.26
	Linear fluid (dielectric constant: 78.4, screening length: 5.74355 Bohr) occupying 0.766574 of unit cell:	Completed after 12 iterations at t[s]:    326.61
	FillingsUpdate:  mu: -0.244750400  nElectrons: 290.293443
	SubspaceRotationAdjust: set factor to 0.0298
ElecMinimize: Iter:  13  G: -1240.023035810105057  |grad|_K:  1.231e-05  alpha:  4.221e-01  linmin: -6.372e-06  t[s]:    333.17
	Linear fluid (dielectric constant: 78.4, screening length: 5.74355 Bohr) occupying 0.767011 of unit cell:	Completed after 16 iterations at t[s]:    340.33
	Linear fluid (dielectric constant: 78.4, screening length: 5.74355 Bohr) occupying 0.767046 of unit cell:	Completed after 9 iterations at t[s]:    346.58
	FillingsUpdate:  mu: -0.244750400  nElectrons: 290.058454
	SubspaceRotationAdjust: set factor to 0.0266
ElecMinimize: Iter:  14  G: -1240.028238588014119  |grad|_K:  9.939e-06  alpha:  4.591e-01  linmin: -1.012e-05  t[s]:    353.29
	Linear fluid (dielectric constant: 78.4, screening length: 5.74355 Bohr) occupying 0.767328 of unit cell:	Completed after 14 iterations at t[s]:    360.20
	Linear fluid (dielectric constant: 78.4, screening length: 5.74355 Bohr) occupying 0.767362 of unit cell:	Completed after 8 iterations at t[s]:    366.37
	FillingsUpdate:  mu: -0.244750400  nElectrons: 289.904079
	SubspaceRotationAdjust: set factor to 0.0255
ElecMinimize: Iter:  15  G: -1240.032065847203739  |grad|_K:  1.076e-05  alpha:  5.179e-01  linmin: -3.488e-06  t[s]:    373.43
	Linear fluid (dielectric constant: 78.4, screening length: 5.74355 Bohr) occupying 0.767770 of unit cell:	Completed after 13 iterations at t[s]:    380.60
	Linear fluid (dielectric constant: 78.4, screening length: 5.74355 Bohr) occupying 0.767682 of unit cell:	Completed after 5 iterations at t[s]:    386.71
	FillingsUpdate:  mu: -0.244750400  nElectrons: 289.809883
	SubspaceRotationAdjust: set factor to 0.0249
ElecMinimize: Iter:  16  G: -1240.035537468081657  |grad|_K:  7.442e-06  alpha:  4.009e-01  linmin:  6.860e-07  t[s]:    393.13
	Linear fluid (dielectric constant: 78.4, screening length: 5.74355 Bohr) occupying 0.767905 of unit cell:	Completed after 11 iterations at t[s]:    399.83
	Linear fluid (dielectric constant: 78.4, screening length: 5.74355 Bohr) occupying 0.767942 of unit cell:	Completed after 4 iterations at t[s]:    405.67
	FillingsUpdate:  mu: -0.244750400  nElectrons: 289.727148
	SubspaceRotationAdjust: set factor to 0.0248
ElecMinimize: Iter:  17  G: -1240.037476795632756  |grad|_K:  7.172e-06  alpha:  4.686e-01  linmin: -1.223e-06  t[s]:    412.19
	Linear fluid (dielectric constant: 78.4, screening length: 5.74355 Bohr) occupying 0.768245 of unit cell:	Completed after 12 iterations at t[s]:    419.04
	Linear fluid (dielectric constant: 78.4, screening length: 5.74355 Bohr) occupying 0.768166 of unit cell:	Completed after 11 iterations at t[s]:    425.43
	FillingsUpdate:  mu: -0.244750400  nElectrons: 289.724976
	SubspaceRotationAdjust: set factor to 0.0214
ElecMinimize: Iter:  18  G: -1240.038802117676141  |grad|_K:  4.739e-06  alpha:  3.446e-01  linmin:  1.039e-05  t[s]:    432.12
	Linear fluid (dielectric constant: 78.4, screening length: 5.74355 Bohr) occupying 0.768281 of unit cell:	Completed after 11 iterations at t[s]:    438.93
	Linear fluid (dielectric constant: 78.4, screening length: 5.74355 Bohr) occupying 0.768331 of unit cell:	Completed after 7 iterations at t[s]:    445.11
	FillingsUpdate:  mu: -0.244750400  nElectrons: 289.672723
	SubspaceRotationAdjust: set factor to 0.0222
ElecMinimize: Iter:  19  G: -1240.039637153383865  |grad|_K:  4.151e-06  alpha:  4.979e-01  linmin: -4.562e-06  t[s]:    451.73
	Linear fluid (dielectric constant: 78.4, screening length: 5.74355 Bohr) occupying 0.768461 of unit cell:	Completed after 12 iterations at t[s]:    458.46
	Linear fluid (dielectric constant: 78.4, screening length: 5.74355 Bohr) occupying 0.768428 of unit cell:	Completed after 8 iterations at t[s]:    464.60
	FillingsUpdate:  mu: -0.244750400  nElectrons: 289.629396
	SubspaceRotationAdjust: set factor to 0.023
ElecMinimize: Iter:  20  G: -1240.040112857241184  |grad|_K:  3.193e-06  alpha:  3.697e-01  linmin: -1.031e-05  t[s]:    471.27
	Linear fluid (dielectric constant: 78.4, screening length: 5.74355 Bohr) occupying 0.768486 of unit cell:	Completed after 10 iterations at t[s]:    478.02
	Linear fluid (dielectric constant: 78.4, screening length: 5.74355 Bohr) occupying 0.768511 of unit cell:	Completed after 7 iterations at t[s]:    484.18
	FillingsUpdate:  mu: -0.244750400  nElectrons: 289.632798
	SubspaceRotationAdjust: set factor to 0.0227
ElecMinimize: Iter:  21  G: -1240.040520508725876  |grad|_K:  2.984e-06  alpha:  5.349e-01  linmin:  6.419e-06  t[s]:    490.49
	Linear fluid (dielectric constant: 78.4, screening length: 5.74355 Bohr) occupying 0.768579 of unit cell:	Completed after 9 iterations at t[s]:    497.20
	Linear fluid (dielectric constant: 78.4, screening length: 5.74355 Bohr) occupying 0.768562 of unit cell:	Completed after 3 iterations at t[s]:    502.95
	FillingsUpdate:  mu: -0.244750400  nElectrons: 289.613078
	SubspaceRotationAdjust: set factor to 0.025
ElecMinimize: Iter:  22  G: -1240.040785580350985  |grad|_K:  2.678e-06  alpha:  3.982e-01  linmin:  1.535e-05  t[s]:    509.63
	Linear fluid (dielectric constant: 78.4, screening length: 5.74355 Bohr) occupying 0.768603 of unit cell:	Completed after 4 iterations at t[s]:    515.73
	Linear fluid (dielectric constant: 78.4, screening length: 5.74355 Bohr) occupying 0.768626 of unit cell:	Completed after 4 iterations at t[s]:    521.40
	FillingsUpdate:  mu: -0.244750400  nElectrons: 289.593925
	SubspaceRotationAdjust: set factor to 0.0264
ElecMinimize: Iter:  23  G: -1240.041122698208028  |grad|_K:  2.785e-06  alpha:  6.299e-01  linmin: -4.654e-06  t[s]:    528.06
	Linear fluid (dielectric constant: 78.4, screening length: 5.74355 Bohr) occupying 0.768706 of unit cell:	Completed after 9 iterations at t[s]:    534.96
	Linear fluid (dielectric constant: 78.4, screening length: 5.74355 Bohr) occupying 0.768695 of unit cell:	Completed after 3 iterations at t[s]:    540.74
	FillingsUpdate:  mu: -0.244750400  nElectrons: 289.587134
	SubspaceRotationAdjust: set factor to 0.0269
ElecMinimize: Iter:  24  G: -1240.041439623858423  |grad|_K:  3.144e-06  alpha:  5.466e-01  linmin:  3.673e-06  t[s]:    547.29
	Linear fluid (dielectric constant: 78.4, screening length: 5.74355 Bohr) occupying 0.768792 of unit cell:	Completed after 11 iterations at t[s]:    553.86
	Linear fluid (dielectric constant: 78.4, screening length: 5.74355 Bohr) occupying 0.768785 of unit cell:	Completed after 2 iterations at t[s]:    559.39
	FillingsUpdate:  mu: -0.244750400  nElectrons: 289.556092
	SubspaceRotationAdjust: set factor to 0.0265
ElecMinimize: Iter:  25  G: -1240.041813773634431  |grad|_K:  3.149e-06  alpha:  5.069e-01  linmin:  1.315e-06  t[s]:    565.66
	Linear fluid (dielectric constant: 78.4, screening length: 5.74355 Bohr) occupying 0.768886 of unit cell:	Completed after 12 iterations at t[s]:    572.50
	Linear fluid (dielectric constant: 78.4, screening length: 5.74355 Bohr) occupying 0.768896 of unit cell:	Completed after 3 iterations at t[s]:    578.19
	FillingsUpdate:  mu: -0.244750400  nElectrons: 289.571714
	SubspaceRotationAdjust: set factor to 0.0238
ElecMinimize: Iter:  26  G: -1240.042225305711099  |grad|_K:  3.408e-06  alpha:  5.552e-01  linmin: -3.609e-05  t[s]:    584.93
	Linear fluid (dielectric constant: 78.4, screening length: 5.74355 Bohr) occupying 0.769017 of unit cell:	Completed after 8 iterations at t[s]:    591.35
	Linear fluid (dielectric constant: 78.4, screening length: 5.74355 Bohr) occupying 0.768991 of unit cell:	Completed after 3 iterations at t[s]:    597.21
	FillingsUpdate:  mu: -0.244750400  nElectrons: 289.557664
	SubspaceRotationAdjust: set factor to 0.0242
ElecMinimize: Iter:  27  G: -1240.042606000783508  |grad|_K:  2.866e-06  alpha:  4.368e-01  linmin: -9.884e-06  t[s]:    603.76
	Linear fluid (dielectric constant: 78.4, screening length: 5.74355 Bohr) occupying 0.769047 of unit cell:	Completed after 8 iterations at t[s]:    610.13
	Linear fluid (dielectric constant: 78.4, screening length: 5.74355 Bohr) occupying 0.769057 of unit cell:	Completed after 3 iterations at t[s]:    615.87
	FillingsUpdate:  mu: -0.244750400  nElectrons: 289.531801
	SubspaceRotationAdjust: set factor to 0.022
ElecMinimize: Iter:  28  G: -1240.042923557008407  |grad|_K:  2.426e-06  alpha:  5.167e-01  linmin: -6.515e-06  t[s]:    622.76
	Linear fluid (dielectric constant: 78.4, screening length: 5.74355 Bohr) occupying 0.769094 of unit cell:	Completed after 10 iterations at t[s]:    629.47
	Linear fluid (dielectric constant: 78.4, screening length: 5.74355 Bohr) occupying 0.769086 of unit cell:	Completed after 5 iterations at t[s]:    635.52
	FillingsUpdate:  mu: -0.244750400  nElectrons: 289.541091
	SubspaceRotationAdjust: set factor to 0.0209
ElecMinimize: Iter:  29  G: -1240.043101532110541  |grad|_K:  2.052e-06  alpha:  4.037e-01  linmin:  3.266e-05  t[s]:    642.13
	Linear fluid (dielectric constant: 78.4, screening length: 5.74355 Bohr) occupying 0.769101 of unit cell:	Completed after 3 iterations at t[s]:    648.05
	Linear fluid (dielectric constant: 78.4, screening length: 5.74355 Bohr) occupying 0.769101 of unit cell:	Completed after 0 iterations at t[s]:    653.43
	FillingsUpdate:  mu: -0.244750400  nElectrons: 289.538585
	SubspaceRotationAdjust: set factor to 0.0206
ElecMinimize: Iter:  30  G: -1240.043230872900040  |grad|_K:  1.425e-06  alpha:  4.127e-01  linmin: -5.701e-05  t[s]:    659.91
	Linear fluid (dielectric constant: 78.4, screening length: 5.74355 Bohr) occupying 0.769105 of unit cell:	Completed after 7 iterations at t[s]:    666.50
	Linear fluid (dielectric constant: 78.4, screening length: 5.74355 Bohr) occupying 0.769105 of unit cell:	Completed after 0 iterations at t[s]:    671.96
	FillingsUpdate:  mu: -0.244750400  nElectrons: 289.541978
	SubspaceRotationAdjust: set factor to 0.0203
ElecMinimize: Iter:  31  G: -1240.043295686186866  |grad|_K:  1.102e-06  alpha:  4.254e-01  linmin: -5.375e-05  t[s]:    678.52
	Linear fluid (dielectric constant: 78.4, screening length: 5.74355 Bohr) occupying 0.769106 of unit cell:	Completed after 2 iterations at t[s]:    684.55
	Linear fluid (dielectric constant: 78.4, screening length: 5.74355 Bohr) occupying 0.769106 of unit cell:	Completed after 0 iterations at t[s]:    689.87
	FillingsUpdate:  mu: -0.244750400  nElectrons: 289.541535
	SubspaceRotationAdjust: set factor to 0.0214
ElecMinimize: Iter:  32  G: -1240.043334106061820  |grad|_K:  8.796e-07  alpha:  4.215e-01  linmin:  1.500e-04  t[s]:    696.63
	Linear fluid (dielectric constant: 78.4, screening length: 5.74355 Bohr) occupying 0.769106 of unit cell:	Completed after 7 iterations at t[s]:    703.25
	Linear fluid (dielectric constant: 78.4, screening length: 5.74355 Bohr) occupying 0.769106 of unit cell:	Completed after 0 iterations at t[s]:    708.52
	FillingsUpdate:  mu: -0.244750400  nElectrons: 289.536102
	SubspaceRotationAdjust: set factor to 0.0215
ElecMinimize: Iter:  33  G: -1240.043358415477314  |grad|_K:  6.872e-07  alpha:  4.247e-01  linmin: -5.203e-05  t[s]:    714.93
	Linear fluid (dielectric constant: 78.4, screening length: 5.74355 Bohr) occupying 0.769107 of unit cell:	Completed after 3 iterations at t[s]:    721.04
	Linear fluid (dielectric constant: 78.4, screening length: 5.74355 Bohr) occupying 0.769107 of unit cell:	Completed after 0 iterations at t[s]:    726.26
	FillingsUpdate:  mu: -0.244750400  nElectrons: 289.538896
	SubspaceRotationAdjust: set factor to 0.0236
ElecMinimize: Iter:  34  G: -1240.043374120958333  |grad|_K:  6.168e-07  alpha:  4.434e-01  linmin: -2.075e-04  t[s]:    732.93
	Linear fluid (dielectric constant: 78.4, screening length: 5.74355 Bohr) occupying 0.769111 of unit cell:	Completed after 3 iterations at t[s]:    738.98
	Linear fluid (dielectric constant: 78.4, screening length: 5.74355 Bohr) occupying 0.769111 of unit cell:	Completed after 0 iterations at t[s]:    744.27
	FillingsUpdate:  mu: -0.244750400  nElectrons: 289.540080
	SubspaceRotationAdjust: set factor to 0.0261
ElecMinimize: Iter:  35  G: -1240.043387990860538  |grad|_K:  5.459e-07  alpha:  4.790e-01  linmin: -2.168e-04  t[s]:    751.16
	Linear fluid (dielectric constant: 78.4, screening length: 5.74355 Bohr) occupying 0.769117 of unit cell:	Completed after 1 iterations at t[s]:    757.27
	Linear fluid (dielectric constant: 78.4, screening length: 5.74355 Bohr) occupying 0.769118 of unit cell:	Completed after 2 iterations at t[s]:    762.96
	FillingsUpdate:  mu: -0.244750400  nElectrons: 289.537899
	SubspaceRotationAdjust: set factor to 0.0283
ElecMinimize: Iter:  36  G: -1240.043401023113574  |grad|_K:  6.347e-07  alpha:  5.755e-01  linmin:  4.504e-06  t[s]:    769.31
	Linear fluid (dielectric constant: 78.4, screening length: 5.74355 Bohr) occupying 0.769128 of unit cell:	Completed after 3 iterations at t[s]:    775.41
	Linear fluid (dielectric constant: 78.4, screening length: 5.74355 Bohr) occupying 0.769126 of unit cell:	Completed after 2 iterations at t[s]:    780.90
	FillingsUpdate:  mu: -0.244750400  nElectrons: 289.538071
	SubspaceRotationAdjust: set factor to 0.0297
ElecMinimize: Iter:  37  G: -1240.043415168526735  |grad|_K:  6.499e-07  alpha:  4.703e-01  linmin:  3.558e-05  t[s]:    787.88
	Linear fluid (dielectric constant: 78.4, screening length: 5.74355 Bohr) occupying 0.769136 of unit cell:	Completed after 4 iterations at t[s]:    794.31
	Linear fluid (dielectric constant: 78.4, screening length: 5.74355 Bohr) occupying 0.769136 of unit cell:	Completed after 0 iterations at t[s]:    799.68
	FillingsUpdate:  mu: -0.244750400  nElectrons: 289.531532
	SubspaceRotationAdjust: set factor to 0.0293
ElecMinimize: Iter:  38  G: -1240.043430421606899  |grad|_K:  6.843e-07  alpha:  4.863e-01  linmin: -6.371e-05  t[s]:    806.15
	Linear fluid (dielectric constant: 78.4, screening length: 5.74355 Bohr) occupying 0.769149 of unit cell:	Completed after 7 iterations at t[s]:    812.54
	Linear fluid (dielectric constant: 78.4, screening length: 5.74355 Bohr) occupying 0.769148 of unit cell:	Completed after 0 iterations at t[s]:    817.83
	FillingsUpdate:  mu: -0.244750400  nElectrons: 289.526833
	SubspaceRotationAdjust: set factor to 0.0302
ElecMinimize: Iter:  39  G: -1240.043447168246530  |grad|_K:  7.298e-07  alpha:  4.716e-01  linmin: -1.844e-05  t[s]:    824.43
	Linear fluid (dielectric constant: 78.4, screening length: 5.74355 Bohr) occupying 0.769164 of unit cell:	Completed after 8 iterations at t[s]:    831.23
	Linear fluid (dielectric constant: 78.4, screening length: 5.74355 Bohr) occupying 0.769161 of unit cell:	Completed after 3 iterations at t[s]:    836.96
	FillingsUpdate:  mu: -0.244750400  nElectrons: 289.531292
	SubspaceRotationAdjust: set factor to 0.0253
ElecMinimize: Iter:  40  G: -1240.043461703299045  |grad|_K:  6.388e-07  alpha:  3.632e-01  linmin:  3.376e-05  t[s]:    843.46
	Linear fluid (dielectric constant: 78.4, screening length: 5.74355 Bohr) occupying 0.769170 of unit cell:	Completed after 4 iterations at t[s]:    849.64
	Linear fluid (dielectric constant: 78.4, screening length: 5.74355 Bohr) occupying 0.769170 of unit cell:	Completed after 0 iterations at t[s]:    854.89
	FillingsUpdate:  mu: -0.244750400  nElectrons: 289.526628
	SubspaceRotationAdjust: set factor to 0.0263
ElecMinimize: Iter:  41  G: -1240.043472935848740  |grad|_K:  5.534e-07  alpha:  3.712e-01  linmin: -4.803e-05  t[s]:    861.53
	Linear fluid (dielectric constant: 78.4, screening length: 5.74355 Bohr) occupying 0.769177 of unit cell:	Completed after 7 iterations at t[s]:    868.10
	Linear fluid (dielectric constant: 78.4, screening length: 5.74355 Bohr) occupying 0.769177 of unit cell:	Completed after 0 iterations at t[s]:    873.37
	FillingsUpdate:  mu: -0.244750400  nElectrons: 289.521000
	SubspaceRotationAdjust: set factor to 0.0246
ElecMinimize: Iter:  42  G: -1240.043481391432351  |grad|_K:  4.395e-07  alpha:  3.653e-01  linmin: -1.440e-04  t[s]:    880.10
	Linear fluid (dielectric constant: 78.4, screening length: 5.74355 Bohr) occupying 0.769183 of unit cell:	Completed after 2 iterations at t[s]:    886.64
	Linear fluid (dielectric constant: 78.4, screening length: 5.74355 Bohr) occupying 0.769182 of unit cell:	Completed after 1 iterations at t[s]:    892.15
	FillingsUpdate:  mu: -0.244750400  nElectrons: 289.522228
	SubspaceRotationAdjust: set factor to 0.0232
ElecMinimize: Iter:  43  G: -1240.043486034140187  |grad|_K:  3.764e-07  alpha:  3.135e-01  linmin:  1.107e-04  t[s]:    898.73
	Linear fluid (dielectric constant: 78.4, screening length: 5.74355 Bohr) occupying 0.769187 of unit cell:	Completed after 2 iterations at t[s]:    904.77
	Linear fluid (dielectric constant: 78.4, screening length: 5.74355 Bohr) occupying 0.769188 of unit cell:	Completed after 0 iterations at t[s]:    909.95
	FillingsUpdate:  mu: -0.244750400  nElectrons: 289.522179
	SubspaceRotationAdjust: set factor to 0.0244
ElecMinimize: Iter:  44  G: -1240.043489585731550  |grad|_K:  2.520e-07  alpha:  3.426e-01  linmin: -2.603e-04  t[s]:    917.05
	Linear fluid (dielectric constant: 78.4, screening length: 5.74355 Bohr) occupying 0.769191 of unit cell:	Completed after 3 iterations at t[s]:    923.38
	Linear fluid (dielectric constant: 78.4, screening length: 5.74355 Bohr) occupying 0.769191 of unit cell:	Completed after 0 iterations at t[s]:    928.84
	FillingsUpdate:  mu: -0.244750400  nElectrons: 289.521387
	SubspaceRotationAdjust: set factor to 0.0252
ElecMinimize: Iter:  45  G: -1240.043491340472428  |grad|_K:  2.178e-07  alpha:  3.524e-01  linmin: -1.222e-04  t[s]:    935.32
	Linear fluid (dielectric constant: 78.4, screening length: 5.74355 Bohr) occupying 0.769194 of unit cell:	Completed after 2 iterations at t[s]:    941.20
	Linear fluid (dielectric constant: 78.4, screening length: 5.74355 Bohr) occupying 0.769194 of unit cell:	Completed after 0 iterations at t[s]:    946.66
	FillingsUpdate:  mu: -0.244750400  nElectrons: 289.521288
	SubspaceRotationAdjust: set factor to 0.0265
ElecMinimize: Iter:  46  G: -1240.043492589137713  |grad|_K:  1.800e-07  alpha:  3.432e-01  linmin: -1.045e-05  t[s]:    953.31
	Linear fluid (dielectric constant: 78.4, screening length: 5.74355 Bohr) occupying 0.769196 of unit cell:	Completed after 2 iterations at t[s]:    959.92
	Linear fluid (dielectric constant: 78.4, screening length: 5.74355 Bohr) occupying 0.769196 of unit cell:	Completed after 0 iterations at t[s]:    965.37
	FillingsUpdate:  mu: -0.244750400  nElectrons: 289.520359
	SubspaceRotationAdjust: set factor to 0.029
ElecMinimize: Iter:  47  G: -1240.043493434694710  |grad|_K:  1.523e-07  alpha:  3.483e-01  linmin: -8.484e-05  t[s]:    971.79
	Linear fluid (dielectric constant: 78.4, screening length: 5.74355 Bohr) occupying 0.769198 of unit cell:	Completed after 3 iterations at t[s]:    977.92
	Linear fluid (dielectric constant: 78.4, screening length: 5.74355 Bohr) occupying 0.769198 of unit cell:	Completed after 0 iterations at t[s]:    983.18
	FillingsUpdate:  mu: -0.244750400  nElectrons: 289.519171
	SubspaceRotationAdjust: set factor to 0.0317
ElecMinimize: Iter:  48  G: -1240.043494032886656  |grad|_K:  1.426e-07  alpha:  3.382e-01  linmin: -5.745e-05  t[s]:    989.37
	Linear fluid (dielectric constant: 78.4, screening length: 5.74355 Bohr) occupying 0.769198 of unit cell:	Completed after 1 iterations at t[s]:    995.32
	Linear fluid (dielectric constant: 78.4, screening length: 5.74355 Bohr) occupying 0.769198 of unit cell:	Completed after 0 iterations at t[s]:   1000.63
	FillingsUpdate:  mu: -0.244750400  nElectrons: 289.519581
	SubspaceRotationAdjust: set factor to 0.0369
ElecMinimize: Iter:  49  G: -1240.043494598037341  |grad|_K:  1.393e-07  alpha:  3.646e-01  linmin: -1.188e-04  t[s]:   1007.56
	Linear fluid (dielectric constant: 78.4, screening length: 5.74355 Bohr) occupying 0.769199 of unit cell:	Completed after 2 iterations at t[s]:   1013.60
	Linear fluid (dielectric constant: 78.4, screening length: 5.74355 Bohr) occupying 0.769199 of unit cell:	Completed after 0 iterations at t[s]:   1019.09
	FillingsUpdate:  mu: -0.244750400  nElectrons: 289.520736
	SubspaceRotationAdjust: set factor to 0.0385
ElecMinimize: Iter:  50  G: -1240.043495114865664  |grad|_K:  1.600e-07  alpha:  3.421e-01  linmin: -4.252e-05  t[s]:   1025.75
	Linear fluid (dielectric constant: 78.4, screening length: 5.74355 Bohr) occupying 0.769200 of unit cell:	Completed after 2 iterations at t[s]:   1031.61
	Linear fluid (dielectric constant: 78.4, screening length: 5.74355 Bohr) occupying 0.769199 of unit cell:	Completed after 0 iterations at t[s]:   1036.94
	FillingsUpdate:  mu: -0.244750400  nElectrons: 289.520274
	SubspaceRotationAdjust: set factor to 0.042
ElecMinimize: Iter:  51  G: -1240.043495623271610  |grad|_K:  1.654e-07  alpha:  2.521e-01  linmin:  1.827e-04  t[s]:   1043.66
	Linear fluid (dielectric constant: 78.4, screening length: 5.74355 Bohr) occupying 0.769200 of unit cell:	Completed after 2 iterations at t[s]:   1050.05
	Linear fluid (dielectric constant: 78.4, screening length: 5.74355 Bohr) occupying 0.769200 of unit cell:	Completed after 0 iterations at t[s]:   1055.52
	FillingsUpdate:  mu: -0.244750400  nElectrons: 289.519103
	SubspaceRotationAdjust: set factor to 0.0462
ElecMinimize: Iter:  52  G: -1240.043496187927531  |grad|_K:  1.486e-07  alpha:  3.116e-01  linmin: -1.608e-04  t[s]:   1062.12
	Linear fluid (dielectric constant: 78.4, screening length: 5.74355 Bohr) occupying 0.769201 of unit cell:	Completed after 2 iterations at t[s]:   1068.07
	Linear fluid (dielectric constant: 78.4, screening length: 5.74355 Bohr) occupying 0.769201 of unit cell:	Completed after 0 iterations at t[s]:   1073.27
	FillingsUpdate:  mu: -0.244750400  nElectrons: 289.518746
	SubspaceRotationAdjust: set factor to 0.0486
ElecMinimize: Iter:  53  G: -1240.043496694066789  |grad|_K:  1.729e-07  alpha:  2.786e-01  linmin: -8.924e-05  t[s]:   1079.88
	Linear fluid (dielectric constant: 78.4, screening length: 5.74355 Bohr) occupying 0.769202 of unit cell:	Completed after 3 iterations at t[s]:   1086.14
	Linear fluid (dielectric constant: 78.4, screening length: 5.74355 Bohr) occupying 0.769202 of unit cell:	Completed after 0 iterations at t[s]:   1091.40
	FillingsUpdate:  mu: -0.244750400  nElectrons: 289.519264
	SubspaceRotationAdjust: set factor to 0.0485
ElecMinimize: Iter:  54  G: -1240.043497221149210  |grad|_K:  1.655e-07  alpha:  2.132e-01  linmin:  1.025e-04  t[s]:   1097.97
	Linear fluid (dielectric constant: 78.4, screening length: 5.74355 Bohr) occupying 0.769203 of unit cell:	Completed after 2 iterations at t[s]:   1104.05
	Linear fluid (dielectric constant: 78.4, screening length: 5.74355 Bohr) occupying 0.769203 of unit cell:	Completed after 0 iterations at t[s]:   1109.44
	FillingsUpdate:  mu: -0.244750400  nElectrons: 289.519005
	SubspaceRotationAdjust: set factor to 0.0486
ElecMinimize: Iter:  55  G: -1240.043497675903382  |grad|_K:  1.422e-07  alpha:  2.467e-01  linmin: -8.859e-05  t[s]:   1116.21
	Linear fluid (dielectric constant: 78.4, screening length: 5.74355 Bohr) occupying 0.769205 of unit cell:	Completed after 2 iterations at t[s]:   1122.32
	Linear fluid (dielectric constant: 78.4, screening length: 5.74355 Bohr) occupying 0.769205 of unit cell:	Completed after 0 iterations at t[s]:   1127.61
	FillingsUpdate:  mu: -0.244750400  nElectrons: 289.519151
	SubspaceRotationAdjust: set factor to 0.0584
ElecMinimize: Iter:  56  G: -1240.043498191415210  |grad|_K:  1.330e-07  alpha:  3.039e-01  linmin: -1.164e-04  t[s]:   1134.37
	Linear fluid (dielectric constant: 78.4, screening length: 5.74355 Bohr) occupying 0.769207 of unit cell:	Completed after 3 iterations at t[s]:   1140.28
	Linear fluid (dielectric constant: 78.4, screening length: 5.74355 Bohr) occupying 0.769206 of unit cell:	Completed after 0 iterations at t[s]:   1145.43
	FillingsUpdate:  mu: -0.244750400  nElectrons: 289.519894
	SubspaceRotationAdjust: set factor to 0.0491
ElecMinimize: Iter:  57  G: -1240.043498504164518  |grad|_K:  1.818e-07  alpha:  1.806e-01  linmin:  3.313e-04  t[s]:   1151.52
	Linear fluid (dielectric constant: 78.4, screening length: 5.74355 Bohr) occupying 0.769208 of unit cell:	Completed after 2 iterations at t[s]:   1157.25
	Linear fluid (dielectric constant: 78.4, screening length: 5.74355 Bohr) occupying 0.769207 of unit cell:	Completed after 0 iterations at t[s]:   1162.28
	FillingsUpdate:  mu: -0.244750400  nElectrons: 289.520161
	SubspaceRotationAdjust: set factor to 0.0582
ElecMinimize: Iter:  58  G: -1240.043498623929509  |grad|_K:  1.264e-07  alpha:  1.049e-01  linmin: -3.740e-05  t[s]:   1168.63
	Linear fluid (dielectric constant: 78.4, screening length: 5.74355 Bohr) occupying 0.769208 of unit cell:	Completed after 0 iterations at t[s]:   1174.17
ElecMinimize: 	Predicted alpha/alphaT>3.000000, increasing alphaT to 3.146918e-01.
	Linear fluid (dielectric constant: 78.4, screening length: 5.74355 Bohr) occupying 0.769209 of unit cell:	Completed after 3 iterations at t[s]:   1179.54
	Linear fluid (dielectric constant: 78.4, screening length: 5.74355 Bohr) occupying 0.769209 of unit cell:	Completed after 0 iterations at t[s]:   1184.67
	FillingsUpdate:  mu: -0.244750400  nElectrons: 289.518951
	SubspaceRotationAdjust: set factor to 0.0438
ElecMinimize: Iter:  59  G: -1240.043498907013372  |grad|_K:  1.263e-07  alpha:  2.157e-01  linmin:  2.024e-04  t[s]:   1190.80
	Linear fluid (dielectric constant: 78.4, screening length: 5.74355 Bohr) occupying 0.769210 of unit cell:	Completed after 1 iterations at t[s]:   1196.54
	Linear fluid (dielectric constant: 78.4, screening length: 5.74355 Bohr) occupying 0.769210 of unit cell:	Completed after 0 iterations at t[s]:   1201.74
	FillingsUpdate:  mu: -0.244750400  nElectrons: 289.518782
	SubspaceRotationAdjust: set factor to 0.0542
ElecMinimize: Iter:  60  G: -1240.043499048113517  |grad|_K:  7.336e-08  alpha:  1.658e-01  linmin: -1.043e-04  t[s]:   1208.36
	Linear fluid (dielectric constant: 78.4, screening length: 5.74355 Bohr) occupying 0.769210 of unit cell:	Completed after 0 iterations at t[s]:   1214.07
	Linear fluid (dielectric constant: 78.4, screening length: 5.74355 Bohr) occupying 0.769210 of unit cell:	Completed after 0 iterations at t[s]:   1219.20
	FillingsUpdate:  mu: -0.244750400  nElectrons: 289.518793
	SubspaceRotationAdjust: set factor to 0.0584
ElecMinimize: Iter:  61  G: -1240.043499243631913  |grad|_K:  6.988e-08  alpha:  4.480e-01  linmin:  4.409e-08  t[s]:   1225.35
	Linear fluid (dielectric constant: 78.4, screening length: 5.74355 Bohr) occupying 0.769211 of unit cell:	Completed after 3 iterations at t[s]:   1231.37
	Linear fluid (dielectric constant: 78.4, screening length: 5.74355 Bohr) occupying 0.769211 of unit cell:	Completed after 0 iterations at t[s]:   1236.51
	FillingsUpdate:  mu: -0.244750400  nElectrons: 289.518886
	SubspaceRotationAdjust: set factor to 0.0514
ElecMinimize: Iter:  62  G: -1240.043499253300752  |grad|_K:  1.304e-07  alpha:  1.805e-01  linmin:  8.156e-05  t[s]:   1242.81
	Linear fluid (dielectric constant: 78.4, screening length: 5.74355 Bohr) occupying 0.769211 of unit cell:	Completed after 1 iterations at t[s]:   1248.51
	Linear fluid (dielectric constant: 78.4, screening length: 5.74355 Bohr) occupying 0.769211 of unit cell:	Completed after 0 iterations at t[s]:   1253.58
	FillingsUpdate:  mu: -0.244750400  nElectrons: 289.518737
	SubspaceRotationAdjust: set factor to 0.0761
ElecMinimize: Iter:  63  G: -1240.043499336910827  |grad|_K:  8.323e-08  alpha:  6.984e-02  linmin:  1.292e-04  t[s]:   1259.68
	Linear fluid (dielectric constant: 78.4, screening length: 5.74355 Bohr) occupying 0.769211 of unit cell:	Completed after 0 iterations at t[s]:   1265.18
ElecMinimize: 	Predicted alpha/alphaT>3.000000, increasing alphaT to 2.095242e-01.
	Linear fluid (dielectric constant: 78.4, screening length: 5.74355 Bohr) occupying 0.769211 of unit cell:	Completed after 0 iterations at t[s]:   1270.18
	Linear fluid (dielectric constant: 78.4, screening length: 5.74355 Bohr) occupying 0.769211 of unit cell:	Completed after 0 iterations at t[s]:   1275.34
	FillingsUpdate:  mu: -0.244750400  nElectrons: 289.517947
	SubspaceRotationAdjust: set factor to 0.0897
ElecMinimize: Iter:  64  G: -1240.043499431398459  |grad|_K:  7.989e-08  alpha:  2.179e-01  linmin: -1.059e-04  t[s]:   1281.59
	Linear fluid (dielectric constant: 78.4, screening length: 5.74355 Bohr) occupying 0.769212 of unit cell:	Completed after 2 iterations at t[s]:   1287.28
	Linear fluid (dielectric constant: 78.4, screening length: 5.74355 Bohr) occupying 0.769211 of unit cell:	Completed after 0 iterations at t[s]:   1292.39
	FillingsUpdate:  mu: -0.244750400  nElectrons: 289.517519
	SubspaceRotationAdjust: set factor to 0.0662
ElecMinimize: Iter:  65  G: -1240.043499448389184  |grad|_K:  1.516e-07  alpha:  6.555e-02  linmin:  5.374e-04  t[s]:   1298.60
	Linear fluid (dielectric constant: 78.4, screening length: 5.74355 Bohr) occupying 0.769212 of unit cell:	Completed after 0 iterations at t[s]:   1304.44
	Linear fluid (dielectric constant: 78.4, screening length: 5.74355 Bohr) occupying 0.769211 of unit cell:	Completed after 0 iterations at t[s]:   1309.55
	FillingsUpdate:  mu: -0.244750400  nElectrons: 289.517418
	SubspaceRotationAdjust: set factor to 0.0537
ElecMinimize: Iter:  66  G: -1240.043499449401907  |grad|_K:  1.365e-07  alpha:  5.795e-03  linmin: -1.930e-09  t[s]:   1315.69
	Linear fluid (dielectric constant: 78.4, screening length: 5.74355 Bohr) occupying 0.769211 of unit cell:	Completed after 0 iterations at t[s]:   1321.12
ElecMinimize: 	Predicted alpha/alphaT>3.000000, increasing alphaT to 1.738537e-02.
	Linear fluid (dielectric constant: 78.4, screening length: 5.74355 Bohr) occupying 0.769211 of unit cell:	Completed after 0 iterations at t[s]:   1326.00
ElecMinimize: 	Predicted alpha/alphaT>3.000000, increasing alphaT to 5.215610e-02.
	Linear fluid (dielectric constant: 78.4, screening length: 5.74355 Bohr) occupying 0.769212 of unit cell:	Completed after 1 iterations at t[s]:   1331.05
	Linear fluid (dielectric constant: 78.4, screening length: 5.74355 Bohr) occupying 0.769212 of unit cell:	Completed after 0 iterations at t[s]:   1336.07
	FillingsUpdate:  mu: -0.244750400  nElectrons: 289.517182
	SubspaceRotationAdjust: set factor to 0.0923
ElecMinimize: Iter:  67  G: -1240.043499452946662  |grad|_K:  6.865e-08  alpha:  2.487e-02  linmin: -7.443e-05  t[s]:   1342.38
ElecMinimize: Converged (|Delta G|<1.000000e-08 for 2 iters).
Setting wave functions to eigenvectors of Hamiltonian

# Ionic positions in lattice coordinates:
ion Mn   0.332731926076709  -0.000009965335930   0.500001369490486 0
ion Mn   0.000188858805733   0.500007379152293   0.500001907595891 0
ion Mn   0.666063795606023   0.000014377143345   0.500009079265215 0
ion Mn   0.333512886203484   0.500016685972462   0.500003064264151 0
ion Mn   0.999383009752197   0.000002275984406   0.500003670915429 0
ion Mn   0.666835733400282   0.500011281334794   0.500004256229994 0
ion Sb   0.166778443831345   0.297674883615830   0.616376003149675 0
ion Sb   0.166887374185579   0.702423394417107   0.383628936467138 0
ion Sb   0.500107101651037   0.297698975146059   0.616373041058065 0
ion Sb   0.500254154770094   0.702226445755512   0.383611473179659 0
ion Sb   0.833443288670234   0.297679866250972   0.616375969191309 0
ion Sb   0.833593854370031   0.702225708908804   0.383615660662781 0
ion Se   0.000112265800751   0.246507997490420   0.530198229167924 0
ion Se   0.166899403446928   0.465920647445779   0.410202227471489 0
ion Se   0.000275245354870   0.753523417219431   0.469798643134026 0
ion Se   0.166802913694104   0.534130628652006   0.589804725140370 0
ion Se   0.333451268704121   0.246506136876042   0.530202973542590 0
ion Se   0.500238420036744   0.465824404562720   0.410163558070658 0
ion Se   0.333644793493073   0.753526466328526   0.469785656533967 0
ion Se   0.500126060610363   0.534126433801202   0.589806889854255 0
ion Se   0.666759607952906   0.246507456084950   0.530208514270474 0
ion Se   0.833574456539567   0.465817914636995   0.410165358781553 0
ion Se   0.666967126651867   0.753510102607698   0.469782815999134 0
ion Se   0.833473456346534   0.534136949652690   0.589801917393855 0
ion I   0.166394963783106   0.938578787720750   0.595818626984929 0
ion I   0.166236219327200   0.061415199005360   0.404203226916371 0
ion I   0.499734068784714   0.938580846074821   0.595821650328500 0
ion I   0.499572240781902   0.061410033579473   0.404203512457763 0
ion I   0.833056471678762   0.938582675125211   0.595822156802073 0
ion I   0.832900532689758   0.061422576790272   0.404204609680276 0


# Forces in Lattice coordinates:
force Mn   0.018980990528195   0.000291531279929   0.002556212280154 0
force Mn   0.001509977739433  -0.000267296202862  -0.000741464579484 0
force Mn  -0.002423488221683  -0.001013348512918  -0.005079538236744 0
force Mn   0.012898892246063  -0.000781917588414   0.003096992709264 0
force Mn  -0.007403170373938  -0.000094365961955   0.000622023348346 0
force Mn  -0.016960837346287  -0.000457616065937  -0.003985497799234 0
force Sb   0.003154493475652  -0.213206752734475   0.535860772247059 0
force Sb   0.004942323630854   0.211798896858790  -0.536058044277720 0
force Sb   0.000262908352690  -0.214122523167627   0.537616613427044 0
force Sb   0.001283614022540   0.214772996109687  -0.536471245830576 0
force Sb  -0.002143631809940  -0.212820883829286   0.536294636451512 0
force Sb  -0.001405188706426   0.214359267006222  -0.536151213417817 0
force Se  -0.002938296404686   0.007203341262488  -0.417170755876149 0
force Se  -0.000235725202375  -0.056069301964755   1.183408282668939 0
force Se  -0.004922559563277  -0.007281981513834   0.418587010415591 0
force Se   0.000183557575243   0.057403749583789  -1.184190845943307 0
force Se  -0.003577656662087   0.007205302215092  -0.418247124968509 0
force Se  -0.000547638851611  -0.058372389966052   1.185570857706580 0
force Se  -0.005568330195906  -0.007380285095565   0.418371065526178 0
force Se   0.000143033095045   0.058403053826258  -1.184927580295193 0
force Se  -0.002110755267203   0.007085623892696  -0.418379902977872 0
force Se  -0.000605998626362  -0.058205165760381   1.185089981700091 0
force Se  -0.004784189398201  -0.007760693816247   0.417488450679717 0
force Se  -0.000415605859975   0.057105985987916  -1.183983648508177 0
force I   0.000502342784072   0.233886110138802  -1.038216024721946 0
force I   0.001407632965382  -0.233917263957083   1.037402132555929 0
force I  -0.000531731820466   0.234125121664861  -1.038595768344040 0
force I   0.000581632964567  -0.233920886207602   1.038247542464536 0
force I  -0.001983735518323   0.234032046038325  -1.038043097448994 0
force I  -0.001165635350614  -0.233737624085452   1.037954099905686 0

# Energy components:
   A_diel =       -0.7228599145015642
   Eewald =     5182.3596755047428815
       EH =     6165.9673642129200744
     Eloc =   -12959.7727764771279908
      Enl =      210.8086431473255118
      Exc =     -532.9359413146100906
 Exc_core =      335.1620229305255521
       KE =      288.3227006133672603
  MuShift =        0.0381721079289094
-------------------------------------
     Etot =    -1310.7729991894289014
       TS =        0.1299463547479095
-------------------------------------
        F =    -1310.9029455441768732
      muN =      -70.8594460912301116
-------------------------------------
        G =    -1240.0434994529466621

IonicMinimize: Iter:   0  G: -1240.043499452946662  |grad|_K:  0.000e+00  t[s]:   1346.83
IonicMinimize: Converged (|grad|_K<1.000000e-04).

#--- Lowdin population analysis ---
# oxidation-state Mn -0.710 -0.567 -0.712 -0.570 -0.719 -0.573
# oxidation-state Sb +0.966 +0.966 +0.966 +0.966 +0.966 +0.966
# oxidation-state Se +0.118 +0.146 +0.118 +0.146 +0.118 +0.146 +0.118 +0.146 +0.118 +0.146 +0.118 +0.146
# oxidation-state I +0.369 +0.369 +0.369 +0.369 +0.369 +0.369


Dumping 'NbTe2.fillings' ... done
Dumping 'NbTe2.wfns' ... done
Dumping 'NbTe2.fluidState' ... done
Dumping 'NbTe2.eigenvals' ... done
End date and time: Sun Jul 12 20:58:18 2020  (Duration: 0-0:22:29.70)
Done!
