
*************** JDFTx 1.5.0  ***************

Start date and time: Thu Jul 16 20:44:27 2020
Executable jdftx_gpu with command-line: -i Neutral.in -o Neutral.out
Running on hosts (process indices):  amax (0-5)
Divided in process groups (process indices):  0 (0)  1 (1)  2 (2)  3 (3)  4 (4)  5 (5)
gpuInit: Found compatible cuda device 0 'Tesla K80'
gpuInit: Found compatible cuda device 1 'Tesla K80'
gpuInit: Found compatible cuda device 2 'Tesla K80'
gpuInit: Found compatible cuda device 3 'Tesla K80'
gpuInit: Found compatible cuda device 4 'Tesla K80'
gpuInit: Found compatible cuda device 5 'Tesla K80'
gpuInit: Selected device 0
Resource initialization completed at t[s]:     22.17
Run totals: 6 processes, 24 threads, 6 GPUs


Input parsed successfully to the following command list (including defaults):

basis kpoint-dependent
cache-projectors no
coords-type Lattice
core-overlap-check none
coulomb-interaction Slab 001
coulomb-truncation-embed 0 0 0.5
davidson-band-ratio 1.1
dump End State
dump-name NbTe2.$VAR
elec-cutoff 20 100
elec-eigen-algo Davidson
elec-ex-corr gga-PBE
elec-smearing Gauss 0.0073499
electronic-minimize  \
	dirUpdateScheme      FletcherReeves \
	linminMethod         DirUpdateRecommended \
	nIterations          500 \
	history              15 \
	knormThreshold       0 \
	energyDiffThreshold  1e-08 \
	nEnergyDiff          2 \
	alphaTstart          1 \
	alphaTmin            1e-10 \
	updateTestStepSize   yes \
	alphaTreduceFactor   0.1 \
	alphaTincreaseFactor 3 \
	nAlphaAdjustMax      3 \
	wolfeEnergy          0.0001 \
	wolfeGradient        0.9 \
	fdTest               no
exchange-regularization WignerSeitzTruncated
fluid LinearPCM 298.000000 1.013250
fluid-anion F- 1 MeanFieldLJ \
	epsBulk 1 \
	pMol 0 \
	epsInf 1 \
	Pvap 0 \
	sigmaBulk 0 \
	Rvdw 2.24877 \
	Res 0 \
	tauNuc 343133
fluid-cation Na+ 1 MeanFieldLJ \
	epsBulk 1 \
	pMol 0 \
	epsInf 1 \
	Pvap 0 \
	sigmaBulk 0 \
	Rvdw 2.19208 \
	Res 0 \
	tauNuc 343133
fluid-ex-corr lda-TF lda-PZ
fluid-gummel-loop 10 1.000000e-05
fluid-minimize  \
	dirUpdateScheme      PolakRibiere \
	linminMethod         DirUpdateRecommended \
	nIterations          400 \
	history              15 \
	knormThreshold       1e-11 \
	energyDiffThreshold  0 \
	nEnergyDiff          2 \
	alphaTstart          1 \
	alphaTmin            1e-10 \
	updateTestStepSize   yes \
	alphaTreduceFactor   0.1 \
	alphaTincreaseFactor 3 \
	nAlphaAdjustMax      6 \
	wolfeEnergy          0.0001 \
	wolfeGradient        0.9 \
	fdTest               no
fluid-solvent H2O 55.338 ScalarEOS \
	epsBulk 78.4 \
	pMol 0.92466 \
	epsInf 1.77 \
	Pvap 1.06736e-10 \
	sigmaBulk 4.62e-05 \
	Rvdw 2.61727 \
	Res 1.42 \
	tauNuc 343133 \
	poleEl 15 7 1
forces-output-coords Positions
initial-state NbTe2.$VAR
ion Ta   0.211010116660952   0.713074459871324   0.504106293641224 0
ion Ta   0.548170066244649   0.713431583129925   0.497890486218262 0
ion Ta   0.882618484436034   0.715001839879284   0.504762235284241 0
ion Ta   0.112310569072982   0.283286301454314   0.499430708534789 0
ion Ta   0.435589994766016   0.275361168789715   0.488833306426077 0
ion Ta   0.806470283160747   0.279670233870269   0.494068245288165 0
ion Ta   0.302190115539477   0.003268799885502   0.501022628340921 0
ion Ta   0.694499862671220   0.005666340715576   0.500088606053846 0
ion Ta   0.000875040066349   0.003073192661963   0.500582076466456 0
ion Te   0.179504222809373   0.886411248740916   0.392560206032082 0
ion Te   0.515414570192672   0.907360693277483   0.403260795073467 0
ion Te   0.855695634045675   0.888723786031717   0.392974413147870 0
ion Te   0.143396660078813   0.109244423696609   0.611190696683771 0
ion Te   0.481143521854337   0.103143695002373   0.596393282843298 0
ion Te   0.816303205180199   0.115536998148938   0.608521851953569 0
ion Te   0.073311357414621   0.548306296292649   0.421626604408388 0
ion Te   0.409258442949772   0.545158144437223   0.424411902308813 0
ion Te   0.742353789065567   0.544790639135643   0.424970788138253 0
ion Te   0.035217689022994   0.787159866001315   0.609557823102421 0
ion Te   0.371701975977249   0.785021288574362   0.605456245042872 0
ion Te   0.698310374578471   0.788881279354383   0.605518836848310 0
ion Te   0.284141703404443   0.204607654750204   0.388807359003666 0
ion Te   0.634633974268668   0.217686628514475   0.394168385973416 0
ion Te   0.969649842653571   0.205436515885402   0.388207402480616 0
ion Te   0.268133995130771   0.444267803379689   0.578807225166391 0
ion Te   0.917958836754386   0.449247636518723   0.583358451538810 0
ion-species GBRV/$ID_pbe.uspp
ion-width Ecut
ionic-minimize  \
	dirUpdateScheme      L-BFGS \
	linminMethod         DirUpdateRecommended \
	nIterations          0 \
	history              15 \
	knormThreshold       0.0001 \
	energyDiffThreshold  1e-06 \
	nEnergyDiff          2 \
	alphaTstart          1 \
	alphaTmin            1e-10 \
	updateTestStepSize   yes \
	alphaTreduceFactor   0.1 \
	alphaTincreaseFactor 3 \
	nAlphaAdjustMax      3 \
	wolfeEnergy          0.0001 \
	wolfeGradient        0.9 \
	fdTest               no
kpoint   0.000000000000   0.000000000000   0.000000000000  1.00000000000000
kpoint-folding 3 3 1 
latt-move-scale 1 1 1
latt-scale 1 1 1 
lattice Triclinic 19.9959 18.365 36.0545 90 90 79.6035
lattice-minimize  \
	dirUpdateScheme      L-BFGS \
	linminMethod         DirUpdateRecommended \
	nIterations          0 \
	history              15 \
	knormThreshold       0 \
	energyDiffThreshold  1e-06 \
	nEnergyDiff          2 \
	alphaTstart          1 \
	alphaTmin            1e-10 \
	updateTestStepSize   yes \
	alphaTreduceFactor   0.1 \
	alphaTincreaseFactor 3 \
	nAlphaAdjustMax      3 \
	wolfeEnergy          0.0001 \
	wolfeGradient        0.9 \
	fdTest               no
lcao-params -1 1e-06 0.0073499
pcm-variant CANDLE
spintype no-spin
subspace-rotation-factor 1 yes
symmetries automatic
symmetry-threshold 0.0001



---------- Setting up symmetries ----------

Found 4 point-group symmetries of the bravais lattice
Found 1 space-group symmetries with basis
Applied RMS atom displacement 0 bohrs to make symmetries exact.

---------- Initializing the Grid ----------
R = 
[    19.9959    3.31413          0  ]
[          0    18.0635          0  ]
[          0          0    36.0545  ]
unit cell volume = 13022.7
G =
[   0.314224  -0.057651          0  ]
[          0   0.347839          0  ]
[          0          0   0.174269  ]
Minimum fftbox size, Smin = [  92  84  164  ]
Chosen fftbox size, S = [  96  84  168  ]

---------- Initializing tighter grid for wavefunction operations ----------
R = 
[    19.9959    3.31413          0  ]
[          0    18.0635          0  ]
[          0          0    36.0545  ]
unit cell volume = 13022.7
G =
[   0.314224  -0.057651          0  ]
[          0   0.347839          0  ]
[          0          0   0.174269  ]
Minimum fftbox size, Smin = [  84  76  148  ]
Chosen fftbox size, S = [  84  80  150  ]

---------- Exchange Correlation functional ----------
Initalized PBE GGA exchange.
Initalized PBE GGA correlation.

---------- Setting up pseudopotentials ----------
Width of ionic core gaussian charges (only for fluid interactions / plotting) set to 0.397384

Reading pseudopotential file '/home/guoxy/vasp/jdftx-1.5.0/build/pseudopotentials/GBRV/ta_pbe.uspp':
  Title: Ta.  Created by USPP 7.3.6 on 14-9-2013
  Reference state energy: -70.583193.  13 valence electrons in orbitals:
    |500>  occupation: 2  eigenvalue: -2.682396
    |510>  occupation: 6  eigenvalue: -1.447928
    |520>  occupation: 3  eigenvalue: -0.131987
    |600>  occupation: 2  eigenvalue: -0.199982
    |610>  occupation: 0  eigenvalue: -0.051129
  lMax: 3  lLocal: 3  QijEcut: 5
  7 projectors sampled on a log grid with 667 points:
    l: 0  eig: -2.682397  rCut: 1.4
    l: 0  eig: -0.199983  rCut: 1.4
    l: 1  eig: -1.447928  rCut: 1.5
    l: 1  eig: -0.051130  rCut: 1.5
    l: 2  eig: -0.131987  rCut: 1.7
    l: 2  eig: 0.150000  rCut: 1.7
    l: 3  eig: 0.250000  rCut: 2.3
  Partial core density with radius 1.2
  Transforming core density to a uniform radial grid of dG=0.02 with 1369 points.
  Transforming local potential to a uniform radial grid of dG=0.02 with 1369 points.
  Transforming nonlocal projectors to a uniform radial grid of dG=0.02 with 432 points.
  Transforming density augmentations to a uniform radial grid of dG=0.02 with 1369 points.
  Transforming atomic orbitals to a uniform radial grid of dG=0.02 with 432 points.
  Core radius for overlap checks: 2.30 bohrs.

Reading pseudopotential file '/home/guoxy/vasp/jdftx-1.5.0/build/pseudopotentials/GBRV/te_pbe.uspp':
  Title: Te.  Created by USPP 7.3.6 on 14-9-2013
  Reference state energy: -13.134220.  6 valence electrons in orbitals:
    |500>  occupation: 2  eigenvalue: -0.555231
    |510>  occupation: 4  eigenvalue: -0.218781
  lMax: 2  lLocal: 2  QijEcut: 5
  5 projectors sampled on a log grid with 723 points:
    l: 0  eig: -0.555229  rCut: 2.1
    l: 0  eig: 1.000000  rCut: 2.1
    l: 1  eig: -0.218780  rCut: 2.1
    l: 1  eig: 1.000000  rCut: 2.1
    l: 2  eig: 1.000000  rCut: 2.6
  Partial core density with radius 1.8
  Transforming core density to a uniform radial grid of dG=0.02 with 1369 points.
  Transforming local potential to a uniform radial grid of dG=0.02 with 1369 points.
  Transforming nonlocal projectors to a uniform radial grid of dG=0.02 with 432 points.
  Transforming density augmentations to a uniform radial grid of dG=0.02 with 1369 points.
  Transforming atomic orbitals to a uniform radial grid of dG=0.02 with 432 points.
  Core radius for overlap checks: 2.60 bohrs.

Initialized 2 species with 26 total atoms.

Folded 1 k-points by 3x3x1 to 9 k-points.

---------- Setting up k-points, bands, fillings ----------
Adding inversion symmetry to k-mesh for non-inversion-symmetric unit cell.
Reduced to 5 k-points under symmetry. 
Computing the number of bands and number of electrons
Calculating initial fillings.
nElectrons: 219.000000   nBands: 185   nStates: 5

----- Setting up reduced wavefunction bases (one per k-point) -----
average nbasis = 55646.778 , ideal nbasis = 55634.015

---------- Setting up coulomb interaction ----------
Fluid mode embedding: using embedded box, but periodic Coulomb kernel.
(Fluid response is responsible for (approximate) separation between periodic images.)
Setting up double-sized grid for truncated Coulomb potentials:
R = 
[    19.9959    3.31413          0  ]
[          0    18.0635          0  ]
[          0          0    72.1089  ]
unit cell volume = 26045.4
G =
[   0.314224  -0.057651          0  ]
[          0   0.347839          0  ]
[          0          0  0.0871346  ]
Chosen fftbox size, S = [  96  84  336  ]
Integer grid location selected as the embedding center:
   Grid: [  0  0  84  ]
   Lattice: [  0  0  0.5  ]
   Cartesian: [  0  0  18.0272  ]
Constructing Wigner-Seitz cell: 8 faces (6 quadrilaterals, 2 hexagons)
Range-separation parameter for embedded mesh potentials due to point charges: 0.589883 bohrs.

Initializing van der Waals corrections
	NOTE: vdW corrections apply only for interactions with fluid.
	Ta:  C6:  815.23 Eh-a0^6  R0: 3.326 a0 (WARNING: beyond Grimme's data set)
	Te:  C6:  550.54 Eh-a0^6  R0: 3.575 a0

---------- Setting up ewald sum ----------
Optimum gaussian width for ewald sums = 6.870552 bohr.
Real space sum over 605 unit cells with max indices [  5  5  2  ]
Reciprocal space sum over 5915 terms with max indices [  6  6  17  ]

---------- Allocating electronic variables ----------
Initializing wave functions:  linear combination of atomic orbitals
Ta pseudo-atom occupations:   s ( 2 2 )  p ( 6 0 )  d ( 3 )
Te pseudo-atom occupations:   s ( 2 )  p ( 4 )
	FillingsUpdate:  mu: -0.046317537  nElectrons: 219.000000
LCAOMinimize: Iter:   0  F: -668.6958662832139453  |grad|_K:  4.624e-03  alpha:  1.000e+00
	FillingsUpdate:  mu: -0.081962773  nElectrons: 219.000000
LCAOMinimize: Iter:   1  F: -668.9022498896390516  |grad|_K:  9.942e-04  alpha:  9.755e-02  linmin: -2.561e-01  cgtest:  6.665e-01  t[s]:     47.51
LCAOMinimize: Encountered beta<0, resetting CG.
	FillingsUpdate:  mu: -0.104049520  nElectrons: 219.000000
LCAOMinimize: Iter:   2  F: -668.9167003479127516  |grad|_K:  3.993e-04  alpha:  1.686e-01  linmin: -6.318e-03  cgtest:  1.173e-02  t[s]:     58.93
	FillingsUpdate:  mu: -0.101843658  nElectrons: 219.000000
LCAOMinimize: Iter:   3  F: -668.9209460791093989  |grad|_K:  2.936e-04  alpha:  3.112e-01  linmin:  1.418e-02  cgtest: -6.885e-02  t[s]:     68.68
	FillingsUpdate:  mu: -0.099351272  nElectrons: 219.000000
LCAOMinimize: Iter:   4  F: -668.9219946225663307  |grad|_K:  1.525e-04  alpha:  1.433e-01  linmin: -5.586e-03  cgtest:  1.576e-01  t[s]:     78.57
	FillingsUpdate:  mu: -0.099151809  nElectrons: 219.000000
LCAOMinimize: Iter:   5  F: -668.9224280277520620  |grad|_K:  7.789e-05  alpha:  2.136e-01  linmin: -1.770e-03  cgtest: -2.306e-02  t[s]:     88.92
	FillingsUpdate:  mu: -0.098904799  nElectrons: 219.000000
LCAOMinimize: Iter:   6  F: -668.9224966405175792  |grad|_K:  2.901e-05  alpha:  1.304e-01  linmin:  9.618e-06  cgtest: -9.505e-03  t[s]:     99.32
	FillingsUpdate:  mu: -0.098517105  nElectrons: 219.000000
LCAOMinimize: Iter:   7  F: -668.9225245349181250  |grad|_K:  2.599e-05  alpha:  3.836e-01  linmin:  5.438e-04  cgtest:  1.045e-04  t[s]:    109.51
	FillingsUpdate:  mu: -0.098637412  nElectrons: 219.000000
LCAOMinimize: Iter:   8  F: -668.9225331519463680  |grad|_K:  1.014e-05  alpha:  1.476e-01  linmin: -2.830e-04  cgtest:  9.427e-03  t[s]:    119.58
	FillingsUpdate:  mu: -0.098806459  nElectrons: 219.000000
LCAOMinimize: Iter:   9  F: -668.9225347410085760  |grad|_K:  5.568e-06  alpha:  1.787e-01  linmin: -3.363e-05  cgtest: -2.195e-03  t[s]:    130.00
	FillingsUpdate:  mu: -0.098768909  nElectrons: 219.000000
LCAOMinimize: Iter:  10  F: -668.9225353503838960  |grad|_K:  3.370e-06  alpha:  2.273e-01  linmin:  6.612e-05  cgtest: -9.168e-05  t[s]:    140.59
	FillingsUpdate:  mu: -0.098744693  nElectrons: 219.000000
LCAOMinimize: Iter:  11  F: -668.9225354960142340  |grad|_K:  1.669e-06  alpha:  1.483e-01  linmin: -1.156e-05  cgtest:  7.420e-04  t[s]:    150.87
LCAOMinimize: Converged (|Delta F|<1.000000e-06 for 2 iters).
----- createFluidSolver() ----- (Fluid-side solver setup)
   Initializing fluid molecule 'H2O'
     Initializing site 'O'
       Electron density: proportional to exp(-r/0.36935)*erfc((r-0.51523)/0.36823) with norm 6.826
       Charge density: gaussian nuclear width 0.478731 with net site charge 0.826
       Polarizability: cuspless exponential with width 0.32 and norm 3.73
       Hard sphere radius: 2.57003 bohrs
       Positions in reference frame:
         [ +0.000000 +0.000000 +0.000000 ]
     Initializing site 'H'
       Electron density: proportional to exp(-r/0.34641)*erfc((r-0)/0.390882) with norm 0.587
       Charge density: gaussian nuclear width 0.377945 with net site charge -0.413
       Polarizability: cuspless exponential with width 0.39 and norm 3.3
       Positions in reference frame:
         [ +0.000000 -1.441945 +1.122523 ]
         [ +0.000000 +1.441945 +1.122523 ]
     Net charge: 0   dipole magnitude: 0.927204
     Initializing spherical shell mfKernel with radius 2.61727 Bohr
     deltaS corrections:
       site 'O': -7.54299
       site 'H': -6.83917
   Initializing fluid molecule 'Na+'
     Initializing site 'Na'
       Electron density: proportional to exp(-r/0.19682)*erfc((r-0.71491)/0.41314) with norm 8.1383
       Charge density: gaussian nuclear width 0.365347 with net site charge -1
       Hard sphere radius: 1.86327 bohrs
       Positions in reference frame:
         [ +0.000000 +0.000000 +0.000000 ]
     Net charge: -1   dipole magnitude: 0
     Initializing gaussian mfKernel with width: 1.55004 Bohr
     deltaS corrections:
       site 'Na': -22.3555
   Initializing fluid molecule 'F-'
     Initializing site 'F'
       Electron density: proportional to exp(-r/0.38886)*erfc((r-0)/0.438782) with norm 8
       Charge density: gaussian nuclear width 0.374796 with net site charge 1
       Hard sphere radius: 2.39995 bohrs
       Positions in reference frame:
         [ +0.000000 +0.000000 +0.000000 ]
     Net charge: 1   dipole magnitude: 0
     Initializing gaussian mfKernel with width: 1.59012 Bohr
     deltaS corrections:
       site 'F': -9.04335

Correction to mu due to finite nuclear width = -0.00834281
   Cavity determined by nc: 0.00142 and sigma: 0.707107
   Nonlocal vdW cavity from gaussian model electron density with norm = 8 and sigma = 0.993594 bohr
   Charge asymmetry in cavity with sensitivity pCavity = 36.5 e-bohr/Eh
   Electrostatic cavity expanded by eta = 1.46 bohrs
   Weighted density cavitation model constrained by Nbulk: 0.0049383 bohr^-3, Pvap: 3.14029 kPa, Rvdw: 2.61727 bohr and sigmaBulk: 4.62e-05 Eh/bohr^2 at T: 298 K.
   Weighted density dispersion model using vdW pair potentials with single solvent site with sqrtC6eff: 0.77 SI.


---- Citations for features of the code used in this run ----

   Software package:
      R. Sundararaman, K. Letchworth-Weaver, K.A. Schwarz, D. Gunceler, Y. Ozhabes and T.A. Arias, 'JDFTx: software for joint density-functional theory', SoftwareX 6, 278 (2017)

   gga-PBE exchange-correlation functional:
      J.P. Perdew, K. Burke and M. Ernzerhof, Phys. Rev. Lett. 77, 3865 (1996)

   Pseudopotentials:
      KF Garrity, JW Bennett, KM Rabe and D Vanderbilt, Comput. Mater. Sci. 81, 446 (2014)

   Truncated Coulomb potentials:
      R. Sundararaman and T.A. Arias, Phys. Rev. B 87, 165122 (2013)

   Van der Waals correction pair-potentials:
      S. Grimme, J. Comput. Chem. 27, 1787 (2006)

   Charge-asymmetric nonlocally-determined local-electric (CANDLE) solvation model:
      R. Sundararaman and W.A. Goddard III, J. Chem. Phys. 142, 064107 (2015)

   Total energy minimization with Auxiliary Hamiltonian:
      C. Freysoldt, S. Boeck, and J. Neugebauer, Phys. Rev. B 79, 241103(R) (2009)

This list may not be complete. Please suggest additional citations or
report any other bugs at https://github.com/shankar1729/jdftx/issues

Initialization completed successfully at t[s]:    153.48

Fluid solver invoked on fresh (partially random / LCAO) wavefunctions
Running a vacuum solve first:

-------- Initial electronic minimization -----------
	FillingsUpdate:  mu: -0.098744693  nElectrons: 219.000000
ElecMinimize: Iter:   0  F: -668.922535496016962  |grad|_K:  9.531e-05  alpha:  1.000e+00
	FillingsUpdate:  mu: -0.058965566  nElectrons: 219.000000
	SubspaceRotationAdjust: set factor to 1
ElecMinimize: Iter:   1  F: -669.328391086559691  |grad|_K:  5.377e-05  alpha:  8.674e-01  linmin: -1.044e-04  t[s]:    173.72
	FillingsUpdate:  mu: -0.086206877  nElectrons: 219.000000
	SubspaceRotationAdjust: set factor to 0.727
ElecMinimize: Iter:   2  F: -669.403679829942007  |grad|_K:  4.987e-05  alpha:  5.087e-01  linmin:  1.168e-05  t[s]:    186.43
	FillingsUpdate:  mu: -0.065649122  nElectrons: 219.000000
	SubspaceRotationAdjust: set factor to 0.47
ElecMinimize: Iter:   3  F: -669.434167025994270  |grad|_K:  3.079e-05  alpha:  2.313e-01  linmin: -1.512e-04  t[s]:    198.56
	FillingsUpdate:  mu: -0.061055012  nElectrons: 219.000000
	SubspaceRotationAdjust: set factor to 0.378
ElecMinimize: Iter:   4  F: -669.451884003857231  |grad|_K:  2.291e-05  alpha:  3.586e-01  linmin:  1.616e-04  t[s]:    212.44
	FillingsUpdate:  mu: -0.073031550  nElectrons: 219.000000
	SubspaceRotationAdjust: set factor to 0.41
ElecMinimize: Iter:   5  F: -669.461990795098814  |grad|_K:  1.360e-05  alpha:  3.798e-01  linmin:  5.624e-05  t[s]:    226.53
	FillingsUpdate:  mu: -0.077211231  nElectrons: 219.000000
	SubspaceRotationAdjust: set factor to 0.417
ElecMinimize: Iter:   6  F: -669.466017483114570  |grad|_K:  1.055e-05  alpha:  4.254e-01  linmin:  2.008e-05  t[s]:    239.64
	FillingsUpdate:  mu: -0.073683901  nElectrons: 219.000000
	SubspaceRotationAdjust: set factor to 0.471
ElecMinimize: Iter:   7  F: -669.468537792059237  |grad|_K:  7.651e-06  alpha:  4.405e-01  linmin:  1.048e-05  t[s]:    252.97
	FillingsUpdate:  mu: -0.071119871  nElectrons: 219.000000
	SubspaceRotationAdjust: set factor to 0.474
ElecMinimize: Iter:   8  F: -669.469725433034228  |grad|_K:  5.582e-06  alpha:  3.943e-01  linmin:  5.906e-06  t[s]:    265.43
	FillingsUpdate:  mu: -0.072570423  nElectrons: 219.000000
	SubspaceRotationAdjust: set factor to 0.521
ElecMinimize: Iter:   9  F: -669.470411467142640  |grad|_K:  4.214e-06  alpha:  4.278e-01  linmin:  4.037e-06  t[s]:    279.17
	FillingsUpdate:  mu: -0.073988997  nElectrons: 219.000000
	SubspaceRotationAdjust: set factor to 0.477
ElecMinimize: Iter:  10  F: -669.470747612533273  |grad|_K:  3.078e-06  alpha:  3.676e-01  linmin:  1.440e-06  t[s]:    292.45
	FillingsUpdate:  mu: -0.073492865  nElectrons: 219.000000
	SubspaceRotationAdjust: set factor to 0.522
ElecMinimize: Iter:  11  F: -669.470936072424820  |grad|_K:  1.986e-06  alpha:  3.861e-01  linmin:  5.109e-06  t[s]:    304.91
	FillingsUpdate:  mu: -0.072971796  nElectrons: 219.000000
	SubspaceRotationAdjust: set factor to 0.472
ElecMinimize: Iter:  12  F: -669.471008911212834  |grad|_K:  1.512e-06  alpha:  3.590e-01  linmin:  1.461e-06  t[s]:    317.03
	FillingsUpdate:  mu: -0.073284005  nElectrons: 219.000000
	SubspaceRotationAdjust: set factor to 0.483
ElecMinimize: Iter:  13  F: -669.471058775603638  |grad|_K:  1.096e-06  alpha:  4.234e-01  linmin:  3.335e-06  t[s]:    329.56
	FillingsUpdate:  mu: -0.073649046  nElectrons: 219.000000
	SubspaceRotationAdjust: set factor to 0.485
ElecMinimize: Iter:  14  F: -669.471081258856316  |grad|_K:  7.590e-07  alpha:  3.640e-01  linmin:  1.289e-06  t[s]:    342.18
	FillingsUpdate:  mu: -0.073585711  nElectrons: 219.000000
	SubspaceRotationAdjust: set factor to 0.501
ElecMinimize: Iter:  15  F: -669.471094144848394  |grad|_K:  6.117e-07  alpha:  4.345e-01  linmin:  1.988e-06  t[s]:    355.63
	FillingsUpdate:  mu: -0.073474876  nElectrons: 219.000000
	SubspaceRotationAdjust: set factor to 0.498
ElecMinimize: Iter:  16  F: -669.471101085577629  |grad|_K:  4.198e-07  alpha:  3.603e-01  linmin:  5.785e-07  t[s]:    369.65
	FillingsUpdate:  mu: -0.073549097  nElectrons: 219.000000
	SubspaceRotationAdjust: set factor to 0.565
ElecMinimize: Iter:  17  F: -669.471104945892307  |grad|_K:  3.233e-07  alpha:  4.253e-01  linmin:  1.284e-06  t[s]:    382.02
	FillingsUpdate:  mu: -0.073597538  nElectrons: 219.000000
	SubspaceRotationAdjust: set factor to 0.546
ElecMinimize: Iter:  18  F: -669.471106940473192  |grad|_K:  2.426e-07  alpha:  3.706e-01  linmin:  4.618e-07  t[s]:    395.18
	FillingsUpdate:  mu: -0.073556620  nElectrons: 219.000000
	SubspaceRotationAdjust: set factor to 0.523
ElecMinimize: Iter:  19  F: -669.471108067444789  |grad|_K:  1.804e-07  alpha:  3.716e-01  linmin:  4.356e-07  t[s]:    409.25
	FillingsUpdate:  mu: -0.073522985  nElectrons: 219.000000
	SubspaceRotationAdjust: set factor to 0.547
ElecMinimize: Iter:  20  F: -669.471108663821155  |grad|_K:  1.215e-07  alpha:  3.558e-01  linmin:  2.950e-07  t[s]:    421.42
	FillingsUpdate:  mu: -0.073527604  nElectrons: 219.000000
	SubspaceRotationAdjust: set factor to 0.525
ElecMinimize: Iter:  21  F: -669.471108974991466  |grad|_K:  9.762e-08  alpha:  4.093e-01  linmin:  3.193e-07  t[s]:    433.70
	FillingsUpdate:  mu: -0.073531421  nElectrons: 219.000000
	SubspaceRotationAdjust: set factor to 0.523
ElecMinimize: Iter:  22  F: -669.471109150997563  |grad|_K:  6.850e-08  alpha:  3.585e-01  linmin:  1.319e-07  t[s]:    447.16
	FillingsUpdate:  mu: -0.073523215  nElectrons: 219.000000
	SubspaceRotationAdjust: set factor to 0.527
ElecMinimize: Iter:  23  F: -669.471109246448350  |grad|_K:  5.405e-08  alpha:  3.948e-01  linmin:  1.384e-07  t[s]:    459.50
	FillingsUpdate:  mu: -0.073518784  nElectrons: 219.000000
	SubspaceRotationAdjust: set factor to 0.533
ElecMinimize: Iter:  24  F: -669.471109304161018  |grad|_K:  3.955e-08  alpha:  3.834e-01  linmin:  1.133e-07  t[s]:    471.51
	FillingsUpdate:  mu: -0.073523540  nElectrons: 219.000000
	SubspaceRotationAdjust: set factor to 0.578
ElecMinimize: Iter:  25  F: -669.471109336218660  |grad|_K:  2.964e-08  alpha:  3.979e-01  linmin:  9.321e-08  t[s]:    485.23
	FillingsUpdate:  mu: -0.073525744  nElectrons: 219.000000
	SubspaceRotationAdjust: set factor to 0.545
ElecMinimize: Iter:  26  F: -669.471109352593203  |grad|_K:  2.261e-08  alpha:  3.620e-01  linmin:  5.757e-08  t[s]:    497.20
	FillingsUpdate:  mu: -0.073523919  nElectrons: 219.000000
	SubspaceRotationAdjust: set factor to 0.532
ElecMinimize: Iter:  27  F: -669.471109362176776  |grad|_K:  1.647e-08  alpha:  3.637e-01  linmin: -1.608e-08  t[s]:    509.18
	FillingsUpdate:  mu: -0.073524108  nElectrons: 219.000000
	SubspaceRotationAdjust: set factor to 0.567
ElecMinimize: Iter:  28  F: -669.471109367595659  |grad|_K:  1.159e-08  alpha:  3.879e-01  linmin:  1.456e-07  t[s]:    520.09
ElecMinimize: Converged (|Delta F|<1.000000e-08 for 2 iters).
Setting wave functions to eigenvectors of Hamiltonian
Vacuum energy after initial minimize, F = -669.471109367595659

	Linear fluid (dielectric constant: 78.4, screening length: 5.74355 Bohr) occupying 0.739490 of unit cell:	Completed after 22 iterations at t[s]:    529.56

-------- Electronic minimization -----------
	Linear fluid (dielectric constant: 78.4, screening length: 5.74355 Bohr) occupying 0.739490 of unit cell:	Completed after 0 iterations at t[s]:    534.61
	FillingsUpdate:  mu: -0.160115040  nElectrons: 219.000000
ElecMinimize: Iter:   0  F: -669.467748369048877  |grad|_K:  2.356e-06  alpha:  1.000e+00
	Linear fluid (dielectric constant: 78.4, screening length: 5.74355 Bohr) occupying 0.740105 of unit cell:	Completed after 14 iterations at t[s]:    549.11
	Linear fluid (dielectric constant: 78.4, screening length: 5.74355 Bohr) occupying 0.739889 of unit cell:	Completed after 12 iterations at t[s]:    560.72
	FillingsUpdate:  mu: -0.158408338  nElectrons: 219.000000
	SubspaceRotationAdjust: set factor to 0.367
ElecMinimize: Iter:   1  F: -669.467931362544846  |grad|_K:  2.436e-06  alpha:  6.437e-01  linmin:  3.247e-07  t[s]:    567.15
	Linear fluid (dielectric constant: 78.4, screening length: 5.74355 Bohr) occupying 0.740480 of unit cell:	Completed after 14 iterations at t[s]:    576.33
	Linear fluid (dielectric constant: 78.4, screening length: 5.74355 Bohr) occupying 0.740189 of unit cell:	Completed after 12 iterations at t[s]:    586.54
	FillingsUpdate:  mu: -0.157941547  nElectrons: 219.000000
	SubspaceRotationAdjust: set factor to 0.262
ElecMinimize: Iter:   2  F: -669.468029611321526  |grad|_K:  1.268e-06  alpha:  3.223e-01  linmin:  8.488e-07  t[s]:    593.13
	Linear fluid (dielectric constant: 78.4, screening length: 5.74355 Bohr) occupying 0.740298 of unit cell:	Completed after 8 iterations at t[s]:    600.11
	Linear fluid (dielectric constant: 78.4, screening length: 5.74355 Bohr) occupying 0.740385 of unit cell:	Completed after 6 iterations at t[s]:    609.09
	FillingsUpdate:  mu: -0.158300129  nElectrons: 219.000000
	SubspaceRotationAdjust: set factor to 0.268
ElecMinimize: Iter:   3  F: -669.468077838720433  |grad|_K:  6.065e-07  alpha:  5.831e-01  linmin: -4.092e-07  t[s]:    616.66
	Linear fluid (dielectric constant: 78.4, screening length: 5.74355 Bohr) occupying 0.740440 of unit cell:	Completed after 6 iterations at t[s]:    621.84
	Linear fluid (dielectric constant: 78.4, screening length: 5.74355 Bohr) occupying 0.740441 of unit cell:	Completed after 0 iterations at t[s]:    629.19
	FillingsUpdate:  mu: -0.158068460  nElectrons: 219.000000
	SubspaceRotationAdjust: set factor to 0.232
ElecMinimize: Iter:   4  F: -669.468089103047078  |grad|_K:  3.622e-07  alpha:  5.931e-01  linmin: -8.539e-06  t[s]:    635.86
	Linear fluid (dielectric constant: 78.4, screening length: 5.74355 Bohr) occupying 0.740460 of unit cell:	Completed after 3 iterations at t[s]:    641.34
	Linear fluid (dielectric constant: 78.4, screening length: 5.74355 Bohr) occupying 0.740461 of unit cell:	Completed after 0 iterations at t[s]:    649.16
	FillingsUpdate:  mu: -0.157986442  nElectrons: 219.000000
	SubspaceRotationAdjust: set factor to 0.224
ElecMinimize: Iter:   5  F: -669.468093380900086  |grad|_K:  2.312e-07  alpha:  6.216e-01  linmin: -1.740e-05  t[s]:    655.88
	Linear fluid (dielectric constant: 78.4, screening length: 5.74355 Bohr) occupying 0.740464 of unit cell:	Completed after 3 iterations at t[s]:    661.86
	Linear fluid (dielectric constant: 78.4, screening length: 5.74355 Bohr) occupying 0.740464 of unit cell:	Completed after 0 iterations at t[s]:    668.31
	FillingsUpdate:  mu: -0.158029765  nElectrons: 219.000000
	SubspaceRotationAdjust: set factor to 0.267
ElecMinimize: Iter:   6  F: -669.468095129327367  |grad|_K:  1.947e-07  alpha:  6.171e-01  linmin: -1.363e-05  t[s]:    674.79
	Linear fluid (dielectric constant: 78.4, screening length: 5.74355 Bohr) occupying 0.740461 of unit cell:	Completed after 2 iterations at t[s]:    679.48
	Linear fluid (dielectric constant: 78.4, screening length: 5.74355 Bohr) occupying 0.740462 of unit cell:	Completed after 1 iterations at t[s]:    687.34
	FillingsUpdate:  mu: -0.158081497  nElectrons: 219.000000
	SubspaceRotationAdjust: set factor to 0.283
ElecMinimize: Iter:   7  F: -669.468095991813925  |grad|_K:  1.325e-07  alpha:  4.276e-01  linmin:  5.380e-05  t[s]:    694.27
	Linear fluid (dielectric constant: 78.4, screening length: 5.74355 Bohr) occupying 0.740459 of unit cell:	Completed after 2 iterations at t[s]:    699.82
	Linear fluid (dielectric constant: 78.4, screening length: 5.74355 Bohr) occupying 0.740458 of unit cell:	Completed after 0 iterations at t[s]:    706.21
	FillingsUpdate:  mu: -0.158076355  nElectrons: 219.000000
	SubspaceRotationAdjust: set factor to 0.39
ElecMinimize: Iter:   8  F: -669.468096526902627  |grad|_K:  7.695e-08  alpha:  5.940e-01  linmin: -1.349e-04  t[s]:    712.83
	Linear fluid (dielectric constant: 78.4, screening length: 5.74355 Bohr) occupying 0.740453 of unit cell:	Completed after 2 iterations at t[s]:    718.37
	Linear fluid (dielectric constant: 78.4, screening length: 5.74355 Bohr) occupying 0.740454 of unit cell:	Completed after 0 iterations at t[s]:    724.67
	FillingsUpdate:  mu: -0.158069647  nElectrons: 219.000000
	SubspaceRotationAdjust: set factor to 0.391
ElecMinimize: Iter:   9  F: -669.468096679139421  |grad|_K:  7.149e-08  alpha:  4.848e-01  linmin: -7.778e-05  t[s]:    731.31
	Linear fluid (dielectric constant: 78.4, screening length: 5.74355 Bohr) occupying 0.740449 of unit cell:	Completed after 1 iterations at t[s]:    737.07
	Linear fluid (dielectric constant: 78.4, screening length: 5.74355 Bohr) occupying 0.740449 of unit cell:	Completed after 0 iterations at t[s]:    743.94
	FillingsUpdate:  mu: -0.158074825  nElectrons: 219.000000
	SubspaceRotationAdjust: set factor to 0.561
ElecMinimize: Iter:  10  F: -669.468096808448081  |grad|_K:  5.054e-08  alpha:  4.386e-01  linmin: -2.127e-05  t[s]:    750.12
	Linear fluid (dielectric constant: 78.4, screening length: 5.74355 Bohr) occupying 0.740445 of unit cell:	Completed after 2 iterations at t[s]:    755.77
	Linear fluid (dielectric constant: 78.4, screening length: 5.74355 Bohr) occupying 0.740447 of unit cell:	Completed after 0 iterations at t[s]:    762.04
	FillingsUpdate:  mu: -0.158099729  nElectrons: 219.000000
	SubspaceRotationAdjust: set factor to 0.4
ElecMinimize: Iter:  11  F: -669.468096822373354  |grad|_K:  7.098e-08  alpha:  2.159e-01  linmin:  1.309e-05  t[s]:    767.92
	Linear fluid (dielectric constant: 78.4, screening length: 5.74355 Bohr) occupying 0.740443 of unit cell:	Completed after 0 iterations at t[s]:    773.36
	Linear fluid (dielectric constant: 78.4, screening length: 5.74355 Bohr) occupying 0.740444 of unit cell:	Completed after 0 iterations at t[s]:    780.47
	FillingsUpdate:  mu: -0.158100509  nElectrons: 219.000000
	SubspaceRotationAdjust: set factor to 0.322
ElecMinimize: Iter:  12  F: -669.468096858085573  |grad|_K:  5.827e-08  alpha:  1.619e-01  linmin: -1.377e-05  t[s]:    787.03
	Linear fluid (dielectric constant: 78.4, screening length: 5.74355 Bohr) occupying 0.740442 of unit cell:	Completed after 0 iterations at t[s]:    791.62
	Linear fluid (dielectric constant: 78.4, screening length: 5.74355 Bohr) occupying 0.740439 of unit cell:	Completed after 2 iterations at t[s]:    798.79
ElecMinimize: 	Step increased F by 1.048611e-07, reducing alpha to 3.619882e-02.
	Linear fluid (dielectric constant: 78.4, screening length: 5.74355 Bohr) occupying 0.740444 of unit cell:	Completed after 3 iterations at t[s]:    810.16
ElecMinimize: 	Step increased F by 3.840569e-09, reducing alpha to 3.619882e-03.
	Linear fluid (dielectric constant: 78.4, screening length: 5.74355 Bohr) occupying 0.740444 of unit cell:	Completed after 0 iterations at t[s]:    821.79
ElecMinimize: 	Step increased F by 7.712629e-09, reducing alpha to 3.619882e-04.
ElecMinimize: 	Step failed to reduce F after 3 attempts. Quitting step.
ElecMinimize: 	Undoing step.
	Linear fluid (dielectric constant: 78.4, screening length: 5.74355 Bohr) occupying 0.740444 of unit cell:	Completed after 0 iterations at t[s]:    832.07
ElecMinimize: 	Step failed: resetting search direction.
	FillingsUpdate:  mu: -0.158117802  nElectrons: 219.000000
	SubspaceRotationAdjust: set factor to 0.501
ElecMinimize: Iter:  13  F: -669.468096850336224  |grad|_K:  3.748e-08  alpha:  3.620e-04
	Linear fluid (dielectric constant: 78.4, screening length: 5.74355 Bohr) occupying 0.740444 of unit cell:	Completed after 0 iterations at t[s]:    842.55
ElecMinimize: 	Predicted alpha/alphaT>3.000000, increasing alphaT to 4.856699e-01.
	Linear fluid (dielectric constant: 78.4, screening length: 5.74355 Bohr) occupying 0.740444 of unit cell:	Completed after 0 iterations at t[s]:    848.44
	Linear fluid (dielectric constant: 78.4, screening length: 5.74355 Bohr) occupying 0.740444 of unit cell:	Completed after 0 iterations at t[s]:    853.78
	FillingsUpdate:  mu: -0.158117911  nElectrons: 219.000000
	SubspaceRotationAdjust: set factor to 0.635
ElecMinimize: Iter:  14  F: -669.468096893433767  |grad|_K:  3.560e-08  alpha:  5.951e-01  linmin:  1.105e-07  t[s]:    860.08
	Linear fluid (dielectric constant: 78.4, screening length: 5.74355 Bohr) occupying 0.740445 of unit cell:	Completed after 2 iterations at t[s]:    864.44
	Linear fluid (dielectric constant: 78.4, screening length: 5.74355 Bohr) occupying 0.740444 of unit cell:	Completed after 2 iterations at t[s]:    871.70
ElecMinimize: 	Step increased F by 1.595026e-08, reducing alpha to 1.099394e-02.
	Linear fluid (dielectric constant: 78.4, screening length: 5.74355 Bohr) occupying 0.740444 of unit cell:	Completed after 0 iterations at t[s]:    882.12
ElecMinimize: 	Step increased F by 4.842832e-09, reducing alpha to 1.099394e-03.
	Linear fluid (dielectric constant: 78.4, screening length: 5.74355 Bohr) occupying 0.740444 of unit cell:	Completed after 0 iterations at t[s]:    893.33
ElecMinimize: 	Step increased F by 3.810669e-09, reducing alpha to 1.099394e-04.
ElecMinimize: 	Step failed to reduce F after 3 attempts. Quitting step.
ElecMinimize: 	Undoing step.
	Linear fluid (dielectric constant: 78.4, screening length: 5.74355 Bohr) occupying 0.740444 of unit cell:	Completed after 0 iterations at t[s]:    904.72
ElecMinimize: 	Step failed: resetting search direction.
	FillingsUpdate:  mu: -0.158076644  nElectrons: 219.000000
	SubspaceRotationAdjust: set factor to 0.504
ElecMinimize: Iter:  15  F: -669.468096889653566  |grad|_K:  5.399e-08  alpha:  1.099e-04
	Linear fluid (dielectric constant: 78.4, screening length: 5.74355 Bohr) occupying 0.740443 of unit cell:	Completed after 2 iterations at t[s]:    916.19
	Linear fluid (dielectric constant: 78.4, screening length: 5.74355 Bohr) occupying 0.740444 of unit cell:	Completed after 2 iterations at t[s]:    923.41
ElecMinimize: 	Step increased F by 1.804892e-09, reducing alpha to 1.523852e-02.
	Linear fluid (dielectric constant: 78.4, screening length: 5.74355 Bohr) occupying 0.740444 of unit cell:	Completed after 0 iterations at t[s]:    933.37
	FillingsUpdate:  mu: -0.158119330  nElectrons: 219.000000
	SubspaceRotationAdjust: set factor to 0.282
ElecMinimize: Iter:  16  F: -669.468096900690057  |grad|_K:  4.262e-08  alpha:  1.524e-02  linmin:  1.000e-04  t[s]:    940.84
	Linear fluid (dielectric constant: 78.4, screening length: 5.74355 Bohr) occupying 0.740444 of unit cell:	Completed after 0 iterations at t[s]:    945.62
ElecMinimize: 	Predicted alpha/alphaT>3.000000, increasing alphaT to 4.571555e-02.
	Linear fluid (dielectric constant: 78.4, screening length: 5.74355 Bohr) occupying 0.740444 of unit cell:	Completed after 0 iterations at t[s]:    951.92
ElecMinimize: 	Predicted alpha/alphaT>3.000000, increasing alphaT to 1.371466e-01.
	Linear fluid (dielectric constant: 78.4, screening length: 5.74355 Bohr) occupying 0.740444 of unit cell:	Completed after 0 iterations at t[s]:    958.96
	Linear fluid (dielectric constant: 78.4, screening length: 5.74355 Bohr) occupying 0.740444 of unit cell:	Completed after 0 iterations at t[s]:    964.93
	FillingsUpdate:  mu: -0.158119275  nElectrons: 219.000000
	SubspaceRotationAdjust: set factor to 0.197
ElecMinimize: Iter:  17  F: -669.468096915120896  |grad|_K:  2.792e-08  alpha:  1.986e-01  linmin: -1.723e-07  t[s]:    971.39
	Linear fluid (dielectric constant: 78.4, screening length: 5.74355 Bohr) occupying 0.740444 of unit cell:	Completed after 0 iterations at t[s]:    975.65
ElecMinimize: 	Predicted alpha/alphaT>3.000000, increasing alphaT to 5.958825e-01.
	Linear fluid (dielectric constant: 78.4, screening length: 5.74355 Bohr) occupying 0.740444 of unit cell:	Completed after 3 iterations at t[s]:    983.94
	Linear fluid (dielectric constant: 78.4, screening length: 5.74355 Bohr) occupying 0.740444 of unit cell:	Completed after 0 iterations at t[s]:    990.60
	FillingsUpdate:  mu: -0.158091200  nElectrons: 219.000000
	SubspaceRotationAdjust: set factor to 0.135
ElecMinimize: Iter:  18  F: -669.468096915366687  |grad|_K:  5.509e-08  alpha:  9.899e-02  linmin:  3.151e-04  t[s]:    996.77
ElecMinimize: 	Bad step direction: g.d > 0.
ElecMinimize: 	Undoing step.
	Linear fluid (dielectric constant: 78.4, screening length: 5.74355 Bohr) occupying 0.740444 of unit cell:	Completed after 0 iterations at t[s]:   1001.56
ElecMinimize: 	Step failed: resetting search direction.
	FillingsUpdate:  mu: -0.158091200  nElectrons: 219.000000
	SubspaceRotationAdjust: set factor to 0.105
ElecMinimize: Iter:  19  F: -669.468096915372485  |grad|_K:  4.845e-08  alpha:  0.000e+00
ElecMinimize: Converged (|Delta F|<1.000000e-08 for 2 iters).
Setting wave functions to eigenvectors of Hamiltonian
Single-point solvation energy estimate, DeltaF = +0.003012452223174

# Ionic positions in lattice coordinates:
ion Ta   0.211010116660952   0.713074459871324   0.504106293641224 0
ion Ta   0.548170066244649   0.713431583129925   0.497890486218262 0
ion Ta   0.882618484436034   0.715001839879284   0.504762235284241 0
ion Ta   0.112310569072982   0.283286301454314   0.499430708534789 0
ion Ta   0.435589994766016   0.275361168789715   0.488833306426077 0
ion Ta   0.806470283160747   0.279670233870269   0.494068245288165 0
ion Ta   0.302190115539477   0.003268799885502   0.501022628340921 0
ion Ta   0.694499862671220   0.005666340715576   0.500088606053846 0
ion Ta   0.000875040066349   0.003073192661963   0.500582076466456 0
ion Te   0.179504222809373   0.886411248740916   0.392560206032082 0
ion Te   0.515414570192672   0.907360693277483   0.403260795073467 0
ion Te   0.855695634045675   0.888723786031717   0.392974413147870 0
ion Te   0.143396660078813   0.109244423696609   0.611190696683771 0
ion Te   0.481143521854337   0.103143695002373   0.596393282843298 0
ion Te   0.816303205180199   0.115536998148938   0.608521851953569 0
ion Te   0.073311357414621   0.548306296292649   0.421626604408388 0
ion Te   0.409258442949772   0.545158144437223   0.424411902308813 0
ion Te   0.742353789065567   0.544790639135643   0.424970788138253 0
ion Te   0.035217689022994   0.787159866001315   0.609557823102421 0
ion Te   0.371701975977249   0.785021288574362   0.605456245042872 0
ion Te   0.698310374578471   0.788881279354383   0.605518836848310 0
ion Te   0.284141703404443   0.204607654750204   0.388807359003666 0
ion Te   0.634633974268668   0.217686628514475   0.394168385973416 0
ion Te   0.969649842653571   0.205436515885402   0.388207402480616 0
ion Te   0.268133995130771   0.444267803379689   0.578807225166391 0
ion Te   0.917958836754386   0.449247636518723   0.583358451538810 0


# Forces in Lattice coordinates:
force Ta  -0.022326701172655  -0.034314915206597   0.017334018893358 0
force Ta  -0.001917324839538  -0.031114198326017   0.079544019771300 0
force Ta   0.028775725046971  -0.037174754324350   0.016443097306061 0
force Ta   0.005527040310135   0.051425722621541  -0.031111410492819 0
force Ta   0.012799617238153   0.043102796842750  -0.046616184367325 0
force Ta  -0.009331853671279   0.035565133024212  -0.024680915942189 0
force Ta   0.044738774543756  -0.007593212379019   0.007374711661631 0
force Ta  -0.062198331497011  -0.008589229766024   0.008718355651581 0
force Ta  -0.001682287769015  -0.007336978700967   0.020957831173358 0
force Te   0.007027489836876  -0.011595146314350  -0.136403787752663 0
force Te  -0.006720762114953   0.025878224650842  -0.062895449439693 0
force Te   0.000505959201529  -0.001535164949733  -0.107872127571365 0
force Te   0.001699721399112  -0.004983138919135   0.143553515812137 0
force Te   0.006620753637892  -0.027222728217944   0.070553267932455 0
force Te   0.006199340995713  -0.007696911968764   0.151191378103194 0
force Te   0.004695256264291  -0.012786360934844  -0.043656864409610 0
force Te  -0.003050965362681  -0.007427448495456  -0.044729992261253 0
force Te  -0.003202904400832   0.001901487989845  -0.051390143587066 0
force Te  -0.003686969772310  -0.007538732049677   0.091199692767100 0
force Te   0.005798379109297  -0.012874859409047   0.064748808114601 0
force Te  -0.005930409537926  -0.008831170414425   0.059954820373126 0
force Te   0.009781138471227   0.021435627159724  -0.102073883993742 0
force Te  -0.011993776695714   0.004732307040579  -0.080027406688230 0
force Te   0.003001485249898   0.018749091445012  -0.116861385842595 0
force Te  -0.001526813001147   0.007443889222827   0.054627811080572 0
force Te   0.000350696646924   0.018616503909716   0.073048631865522 0

# Energy components:
   A_diel =        0.0025637831464898
   Eewald =     3373.8386206926838895
       EH =     3909.3151922230781565
     Eloc =    -7843.0472703357536375
      Enl =     -213.6341159331747122
      Exc =     -313.0456689379136606
 Exc_core =      194.4953446225183598
       KE =      222.6363833868253153
-------------------------------------
     Etot =     -669.4389504985900885
       TS =        0.0291464167823600
-------------------------------------
        F =     -669.4680969153724845

IonicMinimize: Iter:   0  F: -669.468096915372485  |grad|_K:  0.000e+00  t[s]:   1013.64
IonicMinimize: Converged (|grad|_K<1.000000e-04).

#--- Lowdin population analysis ---
# oxidation-state Ta -0.987 -0.865 -0.989 -0.936 -0.882 -0.857 -0.877 -0.901 -0.825
# oxidation-state Te +0.543 +0.597 +0.550 +0.561 +0.512 +0.556 +0.465 +0.514 +0.509 +0.547 +0.530 +0.540 +0.577 +0.495 +0.575 +0.432 +0.427


Dumping 'NbTe2.fillings' ... done
Dumping 'NbTe2.wfns' ... done
Dumping 'NbTe2.fluidState' ... done
Dumping 'NbTe2.eigenvals' ... done
End date and time: Thu Jul 16 21:01:22 2020  (Duration: 0-0:16:55.41)
Done!
