
*************** JDFTx 1.5.0  ***************

Start date and time: Fri Jul 17 08:49:33 2020
Executable jdftx_gpu with command-line: -i Charged.in -o Charged.out
Running on hosts (process indices):  amax (0-5)
Divided in process groups (process indices):  0 (0)  1 (1)  2 (2)  3 (3)  4 (4)  5 (5)
gpuInit: Found compatible cuda device 0 'Tesla K80'
gpuInit: Found compatible cuda device 1 'Tesla K80'
gpuInit: Found compatible cuda device 2 'Tesla K80'
gpuInit: Found compatible cuda device 3 'Tesla K80'
gpuInit: Found compatible cuda device 4 'Tesla K80'
gpuInit: Found compatible cuda device 5 'Tesla K80'
gpuInit: Selected device 0
Resource initialization completed at t[s]:     15.52
Run totals: 6 processes, 24 threads, 6 GPUs


Input parsed successfully to the following command list (including defaults):

basis kpoint-dependent
cache-projectors no
coords-type Lattice
core-overlap-check none
coulomb-interaction Slab 001
coulomb-truncation-embed 0 0 0.5
davidson-band-ratio 1.1
dump End State
dump-name NbTe2.$VAR
elec-cutoff 20 100
elec-eigen-algo Davidson
elec-ex-corr gga-PBE
elec-smearing Gauss 0.0073499
electronic-minimize  \
	dirUpdateScheme      FletcherReeves \
	linminMethod         DirUpdateRecommended \
	nIterations          500 \
	history              15 \
	knormThreshold       0 \
	energyDiffThreshold  1e-08 \
	nEnergyDiff          2 \
	alphaTstart          1 \
	alphaTmin            1e-10 \
	updateTestStepSize   yes \
	alphaTreduceFactor   0.1 \
	alphaTincreaseFactor 3 \
	nAlphaAdjustMax      3 \
	wolfeEnergy          0.0001 \
	wolfeGradient        0.9 \
	fdTest               no
exchange-regularization WignerSeitzTruncated
fluid LinearPCM 298.000000 1.013250
fluid-anion F- 1 MeanFieldLJ \
	epsBulk 1 \
	pMol 0 \
	epsInf 1 \
	Pvap 0 \
	sigmaBulk 0 \
	Rvdw 2.24877 \
	Res 0 \
	tauNuc 343133
fluid-cation Na+ 1 MeanFieldLJ \
	epsBulk 1 \
	pMol 0 \
	epsInf 1 \
	Pvap 0 \
	sigmaBulk 0 \
	Rvdw 2.19208 \
	Res 0 \
	tauNuc 343133
fluid-ex-corr lda-TF lda-PZ
fluid-gummel-loop 10 1.000000e-05
fluid-minimize  \
	dirUpdateScheme      PolakRibiere \
	linminMethod         DirUpdateRecommended \
	nIterations          400 \
	history              15 \
	knormThreshold       1e-11 \
	energyDiffThreshold  0 \
	nEnergyDiff          2 \
	alphaTstart          1 \
	alphaTmin            1e-10 \
	updateTestStepSize   yes \
	alphaTreduceFactor   0.1 \
	alphaTincreaseFactor 3 \
	nAlphaAdjustMax      6 \
	wolfeEnergy          0.0001 \
	wolfeGradient        0.9 \
	fdTest               no
fluid-solvent H2O 55.338 ScalarEOS \
	epsBulk 78.4 \
	pMol 0.92466 \
	epsInf 1.77 \
	Pvap 1.06736e-10 \
	sigmaBulk 4.62e-05 \
	Rvdw 2.61727 \
	Res 1.42 \
	tauNuc 343133 \
	poleEl 15 7 1
forces-output-coords Positions
initial-state NbTe2.$VAR
ion Ta   0.211010116660952   0.713074459871324   0.504106293641224 0
ion Ta   0.548170066244649   0.713431583129925   0.497890486218262 0
ion Ta   0.882618484436034   0.715001839879284   0.504762235284241 0
ion Ta   0.112310569072982   0.283286301454314   0.499430708534789 0
ion Ta   0.435589994766016   0.275361168789715   0.488833306426077 0
ion Ta   0.806470283160747   0.279670233870269   0.494068245288165 0
ion Ta   0.302190115539477   0.003268799885502   0.501022628340921 0
ion Ta   0.694499862671220   0.005666340715576   0.500088606053846 0
ion Ta   0.000875040066349   0.003073192661963   0.500582076466456 0
ion Te   0.179504222809373   0.886411248740916   0.392560206032082 0
ion Te   0.515414570192672   0.907360693277483   0.403260795073467 0
ion Te   0.855695634045675   0.888723786031717   0.392974413147870 0
ion Te   0.143396660078813   0.109244423696609   0.611190696683771 0
ion Te   0.481143521854337   0.103143695002373   0.596393282843298 0
ion Te   0.816303205180199   0.115536998148938   0.608521851953569 0
ion Te   0.073311357414621   0.548306296292649   0.421626604408388 0
ion Te   0.409258442949772   0.545158144437223   0.424411902308813 0
ion Te   0.742353789065567   0.544790639135643   0.424970788138253 0
ion Te   0.035217689022994   0.787159866001315   0.609557823102421 0
ion Te   0.371701975977249   0.785021288574362   0.605456245042872 0
ion Te   0.698310374578471   0.788881279354383   0.605518836848310 0
ion Te   0.284141703404443   0.204607654750204   0.388807359003666 0
ion Te   0.634633974268668   0.217686628514475   0.394168385973416 0
ion Te   0.969649842653571   0.205436515885402   0.388207402480616 0
ion Te   0.268133995130771   0.444267803379689   0.578807225166391 0
ion Te   0.917958836754386   0.449247636518723   0.583358451538810 0
ion-species GBRV/$ID_pbe.uspp
ion-width Ecut
ionic-minimize  \
	dirUpdateScheme      L-BFGS \
	linminMethod         DirUpdateRecommended \
	nIterations          0 \
	history              15 \
	knormThreshold       0.0001 \
	energyDiffThreshold  1e-06 \
	nEnergyDiff          2 \
	alphaTstart          1 \
	alphaTmin            1e-10 \
	updateTestStepSize   yes \
	alphaTreduceFactor   0.1 \
	alphaTincreaseFactor 3 \
	nAlphaAdjustMax      3 \
	wolfeEnergy          0.0001 \
	wolfeGradient        0.9 \
	fdTest               no
kpoint   0.000000000000   0.000000000000   0.000000000000  1.00000000000000
kpoint-folding 3 3 1 
latt-move-scale 1 1 1
latt-scale 1 1 1 
lattice Triclinic 19.9959 18.365 36.0545 90 90 79.6035
lattice-minimize  \
	dirUpdateScheme      L-BFGS \
	linminMethod         DirUpdateRecommended \
	nIterations          0 \
	history              15 \
	knormThreshold       0 \
	energyDiffThreshold  1e-06 \
	nEnergyDiff          2 \
	alphaTstart          1 \
	alphaTmin            1e-10 \
	updateTestStepSize   yes \
	alphaTreduceFactor   0.1 \
	alphaTincreaseFactor 3 \
	nAlphaAdjustMax      3 \
	wolfeEnergy          0.0001 \
	wolfeGradient        0.9 \
	fdTest               no
lcao-params -1 1e-06 0.0073499
pcm-variant CANDLE
spintype no-spin
subspace-rotation-factor 1 yes
symmetries automatic
symmetry-threshold 0.0001
target-mu -0.171252 no




---------- Setting up symmetries ----------

Found 4 point-group symmetries of the bravais lattice
Found 1 space-group symmetries with basis
Applied RMS atom displacement 0 bohrs to make symmetries exact.

---------- Initializing the Grid ----------
R = 
[    19.9959    3.31413          0  ]
[          0    18.0635          0  ]
[          0          0    36.0545  ]
unit cell volume = 13022.7
G =
[   0.314224  -0.057651          0  ]
[          0   0.347839          0  ]
[          0          0   0.174269  ]
Minimum fftbox size, Smin = [  92  84  164  ]
Chosen fftbox size, S = [  96  84  168  ]

---------- Initializing tighter grid for wavefunction operations ----------
R = 
[    19.9959    3.31413          0  ]
[          0    18.0635          0  ]
[          0          0    36.0545  ]
unit cell volume = 13022.7
G =
[   0.314224  -0.057651          0  ]
[          0   0.347839          0  ]
[          0          0   0.174269  ]
Minimum fftbox size, Smin = [  84  76  148  ]
Chosen fftbox size, S = [  84  80  150  ]

---------- Exchange Correlation functional ----------
Initalized PBE GGA exchange.
Initalized PBE GGA correlation.

---------- Setting up pseudopotentials ----------
Width of ionic core gaussian charges (only for fluid interactions / plotting) set to 0.397384

Reading pseudopotential file '/home/guoxy/vasp/jdftx-1.5.0/build/pseudopotentials/GBRV/ta_pbe.uspp':
  Title: Ta.  Created by USPP 7.3.6 on 14-9-2013
  Reference state energy: -70.583193.  13 valence electrons in orbitals:
    |500>  occupation: 2  eigenvalue: -2.682396
    |510>  occupation: 6  eigenvalue: -1.447928
    |520>  occupation: 3  eigenvalue: -0.131987
    |600>  occupation: 2  eigenvalue: -0.199982
    |610>  occupation: 0  eigenvalue: -0.051129
  lMax: 3  lLocal: 3  QijEcut: 5
  7 projectors sampled on a log grid with 667 points:
    l: 0  eig: -2.682397  rCut: 1.4
    l: 0  eig: -0.199983  rCut: 1.4
    l: 1  eig: -1.447928  rCut: 1.5
    l: 1  eig: -0.051130  rCut: 1.5
    l: 2  eig: -0.131987  rCut: 1.7
    l: 2  eig: 0.150000  rCut: 1.7
    l: 3  eig: 0.250000  rCut: 2.3
  Partial core density with radius 1.2
  Transforming core density to a uniform radial grid of dG=0.02 with 1369 points.
  Transforming local potential to a uniform radial grid of dG=0.02 with 1369 points.
  Transforming nonlocal projectors to a uniform radial grid of dG=0.02 with 432 points.
  Transforming density augmentations to a uniform radial grid of dG=0.02 with 1369 points.
  Transforming atomic orbitals to a uniform radial grid of dG=0.02 with 432 points.
  Core radius for overlap checks: 2.30 bohrs.

Reading pseudopotential file '/home/guoxy/vasp/jdftx-1.5.0/build/pseudopotentials/GBRV/te_pbe.uspp':
  Title: Te.  Created by USPP 7.3.6 on 14-9-2013
  Reference state energy: -13.134220.  6 valence electrons in orbitals:
    |500>  occupation: 2  eigenvalue: -0.555231
    |510>  occupation: 4  eigenvalue: -0.218781
  lMax: 2  lLocal: 2  QijEcut: 5
  5 projectors sampled on a log grid with 723 points:
    l: 0  eig: -0.555229  rCut: 2.1
    l: 0  eig: 1.000000  rCut: 2.1
    l: 1  eig: -0.218780  rCut: 2.1
    l: 1  eig: 1.000000  rCut: 2.1
    l: 2  eig: 1.000000  rCut: 2.6
  Partial core density with radius 1.8
  Transforming core density to a uniform radial grid of dG=0.02 with 1369 points.
  Transforming local potential to a uniform radial grid of dG=0.02 with 1369 points.
  Transforming nonlocal projectors to a uniform radial grid of dG=0.02 with 432 points.
  Transforming density augmentations to a uniform radial grid of dG=0.02 with 1369 points.
  Transforming atomic orbitals to a uniform radial grid of dG=0.02 with 432 points.
  Core radius for overlap checks: 2.60 bohrs.

Initialized 2 species with 26 total atoms.

Folded 1 k-points by 3x3x1 to 9 k-points.

---------- Setting up k-points, bands, fillings ----------
Adding inversion symmetry to k-mesh for non-inversion-symmetric unit cell.
Reduced to 5 k-points under symmetry. 
Computing the number of bands and number of electrons
Reading initial fillings from file NbTe2.fillings.
nElectrons: 219.000000   nBands: 185   nStates: 5

----- Setting up reduced wavefunction bases (one per k-point) -----
average nbasis = 55646.778 , ideal nbasis = 55634.015

---------- Setting up coulomb interaction ----------
Fluid mode embedding: using embedded box, but periodic Coulomb kernel.
(Fluid response is responsible for (approximate) separation between periodic images.)
Setting up double-sized grid for truncated Coulomb potentials:
R = 
[    19.9959    3.31413          0  ]
[          0    18.0635          0  ]
[          0          0    72.1089  ]
unit cell volume = 26045.4
G =
[   0.314224  -0.057651          0  ]
[          0   0.347839          0  ]
[          0          0  0.0871346  ]
Chosen fftbox size, S = [  96  84  336  ]
Integer grid location selected as the embedding center:
   Grid: [  0  0  84  ]
   Lattice: [  0  0  0.5  ]
   Cartesian: [  0  0  18.0272  ]
Constructing Wigner-Seitz cell: 8 faces (6 quadrilaterals, 2 hexagons)
Range-separation parameter for embedded mesh potentials due to point charges: 0.589883 bohrs.

Initializing van der Waals corrections
	NOTE: vdW corrections apply only for interactions with fluid.
	Ta:  C6:  815.23 Eh-a0^6  R0: 3.326 a0 (WARNING: beyond Grimme's data set)
	Te:  C6:  550.54 Eh-a0^6  R0: 3.575 a0

---------- Setting up ewald sum ----------
Optimum gaussian width for ewald sums = 6.870552 bohr.
Real space sum over 605 unit cells with max indices [  5  5  2  ]
Reciprocal space sum over 5915 terms with max indices [  6  6  17  ]

---------- Allocating electronic variables ----------
Initializing wave functions:  reading from 'NbTe2.wfns'
----- createFluidSolver() ----- (Fluid-side solver setup)
   Initializing fluid molecule 'H2O'
     Initializing site 'O'
       Electron density: proportional to exp(-r/0.36935)*erfc((r-0.51523)/0.36823) with norm 6.826
       Charge density: gaussian nuclear width 0.478731 with net site charge 0.826
       Polarizability: cuspless exponential with width 0.32 and norm 3.73
       Hard sphere radius: 2.57003 bohrs
       Positions in reference frame:
         [ +0.000000 +0.000000 +0.000000 ]
     Initializing site 'H'
       Electron density: proportional to exp(-r/0.34641)*erfc((r-0)/0.390882) with norm 0.587
       Charge density: gaussian nuclear width 0.377945 with net site charge -0.413
       Polarizability: cuspless exponential with width 0.39 and norm 3.3
       Positions in reference frame:
         [ +0.000000 -1.441945 +1.122523 ]
         [ +0.000000 +1.441945 +1.122523 ]
     Net charge: 0   dipole magnitude: 0.927204
     Initializing spherical shell mfKernel with radius 2.61727 Bohr
     deltaS corrections:
       site 'O': -7.54299
       site 'H': -6.83917
   Initializing fluid molecule 'Na+'
     Initializing site 'Na'
       Electron density: proportional to exp(-r/0.19682)*erfc((r-0.71491)/0.41314) with norm 8.1383
       Charge density: gaussian nuclear width 0.365347 with net site charge -1
       Hard sphere radius: 1.86327 bohrs
       Positions in reference frame:
         [ +0.000000 +0.000000 +0.000000 ]
     Net charge: -1   dipole magnitude: 0
     Initializing gaussian mfKernel with width: 1.55004 Bohr
     deltaS corrections:
       site 'Na': -22.3555
   Initializing fluid molecule 'F-'
     Initializing site 'F'
       Electron density: proportional to exp(-r/0.38886)*erfc((r-0)/0.438782) with norm 8
       Charge density: gaussian nuclear width 0.374796 with net site charge 1
       Hard sphere radius: 2.39995 bohrs
       Positions in reference frame:
         [ +0.000000 +0.000000 +0.000000 ]
     Net charge: 1   dipole magnitude: 0
     Initializing gaussian mfKernel with width: 1.59012 Bohr
     deltaS corrections:
       site 'F': -9.04335

Correction to mu due to finite nuclear width = -0.00834281
   Cavity determined by nc: 0.00142 and sigma: 0.707107
   Nonlocal vdW cavity from gaussian model electron density with norm = 8 and sigma = 0.993594 bohr
   Charge asymmetry in cavity with sensitivity pCavity = 36.5 e-bohr/Eh
   Electrostatic cavity expanded by eta = 1.46 bohrs
   Weighted density cavitation model constrained by Nbulk: 0.0049383 bohr^-3, Pvap: 3.14029 kPa, Rvdw: 2.61727 bohr and sigmaBulk: 4.62e-05 Eh/bohr^2 at T: 298 K.
   Weighted density dispersion model using vdW pair potentials with single solvent site with sqrtC6eff: 0.77 SI.
Reading fluid state from 'NbTe2.fluidState'


---- Citations for features of the code used in this run ----

   Software package:
      R. Sundararaman, K. Letchworth-Weaver, K.A. Schwarz, D. Gunceler, Y. Ozhabes and T.A. Arias, 'JDFTx: software for joint density-functional theory', SoftwareX 6, 278 (2017)

   gga-PBE exchange-correlation functional:
      J.P. Perdew, K. Burke and M. Ernzerhof, Phys. Rev. Lett. 77, 3865 (1996)

   Pseudopotentials:
      KF Garrity, JW Bennett, KM Rabe and D Vanderbilt, Comput. Mater. Sci. 81, 446 (2014)

   Truncated Coulomb potentials:
      R. Sundararaman and T.A. Arias, Phys. Rev. B 87, 165122 (2013)

   Van der Waals correction pair-potentials:
      S. Grimme, J. Comput. Chem. 27, 1787 (2006)

   Charge-asymmetric nonlocally-determined local-electric (CANDLE) solvation model:
      R. Sundararaman and W.A. Goddard III, J. Chem. Phys. 142, 064107 (2015)

   Total energy minimization with Auxiliary Hamiltonian:
      C. Freysoldt, S. Boeck, and J. Neugebauer, Phys. Rev. B 79, 241103(R) (2009)

   Grand-canonical (fixed-potential) DFT:
      R. Sundararaman, W. A. Goddard III and T. A. Arias, J. Chem. Phys. 146, 114104 (2017)

This list may not be complete. Please suggest additional citations or
report any other bugs at https://github.com/shankar1729/jdftx/issues

Initialization completed successfully at t[s]:     21.19

Shifting auxilliary hamiltonian by -0.013161 to set nElectrons=219.000000
	Linear fluid (dielectric constant: 78.4, screening length: 5.74355 Bohr) occupying 0.740442 of unit cell:	Completed after 4 iterations at t[s]:     24.62

-------- Electronic minimization -----------
	Linear fluid (dielectric constant: 78.4, screening length: 5.74355 Bohr) occupying 0.740442 of unit cell:	Completed after 0 iterations at t[s]:     28.88
	FillingsUpdate:  mu: -0.171251800  nElectrons: 219.000000
ElecMinimize: Iter:   0  G: -631.963947161403667  |grad|_K:  2.120e-05  alpha:  1.000e+00
	Linear fluid (dielectric constant: 78.4, screening length: 5.74355 Bohr) occupying 0.741922 of unit cell:	Completed after 22 iterations at t[s]:     44.87
	Linear fluid (dielectric constant: 78.4, screening length: 5.74355 Bohr) occupying 0.740469 of unit cell:	Completed after 23 iterations at t[s]:     59.19
	FillingsUpdate:  mu: -0.171251800  nElectrons: 218.897299
	SubspaceRotationAdjust: set factor to 0.51
ElecMinimize: Iter:   1  G: -631.964902519555267  |grad|_K:  1.019e-05  alpha:  2.886e-02  linmin: -4.380e-02  t[s]:     66.26
	Linear fluid (dielectric constant: 78.4, screening length: 5.74355 Bohr) occupying 0.740515 of unit cell:	Completed after 12 iterations at t[s]:     74.95
	Linear fluid (dielectric constant: 78.4, screening length: 5.74355 Bohr) occupying 0.740549 of unit cell:	Completed after 12 iterations at t[s]:     87.48
	FillingsUpdate:  mu: -0.171251800  nElectrons: 218.781096
	SubspaceRotationAdjust: set factor to 0.297
ElecMinimize: Iter:   2  G: -631.965278122453469  |grad|_K:  7.027e-06  alpha:  4.972e-02  linmin:  4.739e-04  t[s]:     95.39
	Linear fluid (dielectric constant: 78.4, screening length: 5.74355 Bohr) occupying 0.740625 of unit cell:	Completed after 10 iterations at t[s]:    104.34
ElecMinimize: 	Predicted alpha/alphaT>3.000000, increasing alphaT to 1.491504e-01.
	Linear fluid (dielectric constant: 78.4, screening length: 5.74355 Bohr) occupying 0.740777 of unit cell:	Completed after 12 iterations at t[s]:    115.99
	Linear fluid (dielectric constant: 78.4, screening length: 5.74355 Bohr) occupying 0.740814 of unit cell:	Completed after 9 iterations at t[s]:    125.53
	FillingsUpdate:  mu: -0.171251800  nElectrons: 218.635620
	SubspaceRotationAdjust: set factor to 0.174
ElecMinimize: Iter:   3  G: -631.965706609836616  |grad|_K:  7.866e-06  alpha:  1.731e-01  linmin:  1.614e-04  t[s]:    133.36
	Linear fluid (dielectric constant: 78.4, screening length: 5.74355 Bohr) occupying 0.741219 of unit cell:	Completed after 12 iterations at t[s]:    141.07
	Linear fluid (dielectric constant: 78.4, screening length: 5.74355 Bohr) occupying 0.741111 of unit cell:	Completed after 6 iterations at t[s]:    150.55
	FillingsUpdate:  mu: -0.171251800  nElectrons: 218.571878
	SubspaceRotationAdjust: set factor to 0.147
ElecMinimize: Iter:   4  G: -631.966106338620193  |grad|_K:  4.310e-06  alpha:  1.267e-01  linmin:  1.292e-05  t[s]:    157.57
	Linear fluid (dielectric constant: 78.4, screening length: 5.74355 Bohr) occupying 0.741238 of unit cell:	Completed after 12 iterations at t[s]:    166.40
	Linear fluid (dielectric constant: 78.4, screening length: 5.74355 Bohr) occupying 0.741286 of unit cell:	Completed after 9 iterations at t[s]:    175.06
	FillingsUpdate:  mu: -0.171251800  nElectrons: 218.580746
	SubspaceRotationAdjust: set factor to 0.172
ElecMinimize: Iter:   5  G: -631.966273507135497  |grad|_K:  3.244e-06  alpha:  1.752e-01  linmin:  8.566e-05  t[s]:    183.62
	Linear fluid (dielectric constant: 78.4, screening length: 5.74355 Bohr) occupying 0.741432 of unit cell:	Completed after 11 iterations at t[s]:    192.59
	Linear fluid (dielectric constant: 78.4, screening length: 5.74355 Bohr) occupying 0.741534 of unit cell:	Completed after 10 iterations at t[s]:    205.18
	FillingsUpdate:  mu: -0.171251800  nElectrons: 218.589618
	SubspaceRotationAdjust: set factor to 0.108
	SubspaceRotationAdjust: resetting CG because factor has changed by 0.108381
	Linear fluid (dielectric constant: 78.4, screening length: 5.74355 Bohr) occupying 0.741534 of unit cell:	Completed after 0 iterations at t[s]:    216.47
ElecMinimize: 	State modified externally: resetting search direction.
ElecMinimize: Iter:   6  G: -631.966434848265180  |grad|_K:  3.264e-06  alpha:  2.986e-01
	Linear fluid (dielectric constant: 78.4, screening length: 5.74355 Bohr) occupying 0.741598 of unit cell:	Completed after 12 iterations at t[s]:    232.96
	Linear fluid (dielectric constant: 78.4, screening length: 5.74355 Bohr) occupying 0.741629 of unit cell:	Completed after 10 iterations at t[s]:    245.44
	FillingsUpdate:  mu: -0.171251800  nElectrons: 218.545206
	SubspaceRotationAdjust: set factor to 0.0878
ElecMinimize: Iter:   7  G: -631.966679870640860  |grad|_K:  1.648e-06  alpha:  4.456e-01  linmin: -1.821e-04  t[s]:    253.26
	Linear fluid (dielectric constant: 78.4, screening length: 5.74355 Bohr) occupying 0.741728 of unit cell:	Completed after 9 iterations at t[s]:    261.43
	Linear fluid (dielectric constant: 78.4, screening length: 5.74355 Bohr) occupying 0.741873 of unit cell:	Completed after 10 iterations at t[s]:    272.21
	FillingsUpdate:  mu: -0.171251800  nElectrons: 218.579238
	SubspaceRotationAdjust: set factor to 0.102
ElecMinimize: Iter:   8  G: -631.966834111903381  |grad|_K:  8.756e-07  alpha:  1.097e+00  linmin: -1.789e-04  t[s]:    278.77
	Linear fluid (dielectric constant: 78.4, screening length: 5.74355 Bohr) occupying 0.741996 of unit cell:	Completed after 7 iterations at t[s]:    287.53
	Linear fluid (dielectric constant: 78.4, screening length: 5.74355 Bohr) occupying 0.741989 of unit cell:	Completed after 0 iterations at t[s]:    295.23
	FillingsUpdate:  mu: -0.171251800  nElectrons: 218.579371
	SubspaceRotationAdjust: set factor to 0.119
ElecMinimize: Iter:   9  G: -631.966874924721651  |grad|_K:  1.020e-06  alpha:  1.029e+00  linmin:  2.475e-05  t[s]:    303.59
	Linear fluid (dielectric constant: 78.4, screening length: 5.74355 Bohr) occupying 0.742160 of unit cell:	Completed after 9 iterations at t[s]:    311.75
	Linear fluid (dielectric constant: 78.4, screening length: 5.74355 Bohr) occupying 0.742080 of unit cell:	Completed after 7 iterations at t[s]:    320.75
	FillingsUpdate:  mu: -0.171251800  nElectrons: 218.570077
	SubspaceRotationAdjust: set factor to 0.139
ElecMinimize: Iter:  10  G: -631.966904162902779  |grad|_K:  8.457e-07  alpha:  5.455e-01  linmin:  1.450e-05  t[s]:    328.45
	Linear fluid (dielectric constant: 78.4, screening length: 5.74355 Bohr) occupying 0.742143 of unit cell:	Completed after 7 iterations at t[s]:    337.21
	Linear fluid (dielectric constant: 78.4, screening length: 5.74355 Bohr) occupying 0.742137 of unit cell:	Completed after 0 iterations at t[s]:    344.93
	FillingsUpdate:  mu: -0.171251800  nElectrons: 218.561784
	SubspaceRotationAdjust: set factor to 0.17
ElecMinimize: Iter:  11  G: -631.966922434741491  |grad|_K:  6.070e-07  alpha:  4.960e-01  linmin:  6.100e-05  t[s]:    352.42
	Linear fluid (dielectric constant: 78.4, screening length: 5.74355 Bohr) occupying 0.742170 of unit cell:	Completed after 3 iterations at t[s]:    357.73
	Linear fluid (dielectric constant: 78.4, screening length: 5.74355 Bohr) occupying 0.742202 of unit cell:	Completed after 6 iterations at t[s]:    366.83
	FillingsUpdate:  mu: -0.171251800  nElectrons: 218.559593
	SubspaceRotationAdjust: set factor to 0.192
ElecMinimize: Iter:  12  G: -631.966940857629879  |grad|_K:  5.245e-07  alpha:  9.854e-01  linmin:  5.297e-05  t[s]:    374.39
	Linear fluid (dielectric constant: 78.4, screening length: 5.74355 Bohr) occupying 0.742275 of unit cell:	Completed after 9 iterations at t[s]:    381.50
	Linear fluid (dielectric constant: 78.4, screening length: 5.74355 Bohr) occupying 0.742253 of unit cell:	Completed after 3 iterations at t[s]:    391.74
	FillingsUpdate:  mu: -0.171251800  nElectrons: 218.549126
	SubspaceRotationAdjust: set factor to 0.187
ElecMinimize: Iter:  13  G: -631.966950600439418  |grad|_K:  5.068e-07  alpha:  6.902e-01  linmin:  6.357e-05  t[s]:    398.92
	Linear fluid (dielectric constant: 78.4, screening length: 5.74355 Bohr) occupying 0.742323 of unit cell:	Completed after 9 iterations at t[s]:    405.89
	Linear fluid (dielectric constant: 78.4, screening length: 5.74355 Bohr) occupying 0.742301 of unit cell:	Completed after 3 iterations at t[s]:    415.49
	FillingsUpdate:  mu: -0.171251800  nElectrons: 218.550268
	SubspaceRotationAdjust: set factor to 0.154
ElecMinimize: Iter:  14  G: -631.966956640382932  |grad|_K:  4.130e-07  alpha:  4.684e-01  linmin:  2.710e-05  t[s]:    422.91
	Linear fluid (dielectric constant: 78.4, screening length: 5.74355 Bohr) occupying 0.742342 of unit cell:	Completed after 7 iterations at t[s]:    431.88
	Linear fluid (dielectric constant: 78.4, screening length: 5.74355 Bohr) occupying 0.742349 of unit cell:	Completed after 0 iterations at t[s]:    439.84
	FillingsUpdate:  mu: -0.171251800  nElectrons: 218.541957
	SubspaceRotationAdjust: set factor to 0.154
ElecMinimize: Iter:  15  G: -631.966961468406225  |grad|_K:  2.305e-07  alpha:  5.441e-01  linmin: -2.625e-04  t[s]:    447.29
	Linear fluid (dielectric constant: 78.4, screening length: 5.74355 Bohr) occupying 0.742370 of unit cell:	Completed after 2 iterations at t[s]:    454.05
	Linear fluid (dielectric constant: 78.4, screening length: 5.74355 Bohr) occupying 0.742373 of unit cell:	Completed after 0 iterations at t[s]:    462.25
	FillingsUpdate:  mu: -0.171251800  nElectrons: 218.539434
	SubspaceRotationAdjust: set factor to 0.167
ElecMinimize: Iter:  16  G: -631.966963365055790  |grad|_K:  1.870e-07  alpha:  6.339e-01  linmin: -7.327e-05  t[s]:    470.81
	Linear fluid (dielectric constant: 78.4, screening length: 5.74355 Bohr) occupying 0.742392 of unit cell:	Completed after 2 iterations at t[s]:    476.79
	Linear fluid (dielectric constant: 78.4, screening length: 5.74355 Bohr) occupying 0.742390 of unit cell:	Completed after 0 iterations at t[s]:    483.17
	FillingsUpdate:  mu: -0.171251800  nElectrons: 218.539868
	SubspaceRotationAdjust: set factor to 0.174
ElecMinimize: Iter:  17  G: -631.966964474066913  |grad|_K:  1.350e-07  alpha:  5.941e-01  linmin: -1.873e-06  t[s]:    490.17
	Linear fluid (dielectric constant: 78.4, screening length: 5.74355 Bohr) occupying 0.742399 of unit cell:	Completed after 3 iterations at t[s]:    495.75
	Linear fluid (dielectric constant: 78.4, screening length: 5.74355 Bohr) occupying 0.742396 of unit cell:	Completed after 0 iterations at t[s]:    502.97
	FillingsUpdate:  mu: -0.171251800  nElectrons: 218.540208
	SubspaceRotationAdjust: set factor to 0.176
ElecMinimize: Iter:  18  G: -631.966964832181247  |grad|_K:  9.505e-08  alpha:  3.852e-01  linmin:  2.168e-05  t[s]:    509.42
	Linear fluid (dielectric constant: 78.4, screening length: 5.74355 Bohr) occupying 0.742398 of unit cell:	Completed after 0 iterations at t[s]:    515.20
	Linear fluid (dielectric constant: 78.4, screening length: 5.74355 Bohr) occupying 0.742399 of unit cell:	Completed after 2 iterations at t[s]:    523.45
	FillingsUpdate:  mu: -0.171251800  nElectrons: 218.538840
	SubspaceRotationAdjust: set factor to 0.159
ElecMinimize: Iter:  19  G: -631.966965017026837  |grad|_K:  7.937e-08  alpha:  6.355e-01  linmin:  2.627e-04  t[s]:    530.41
	Linear fluid (dielectric constant: 78.4, screening length: 5.74355 Bohr) occupying 0.742400 of unit cell:	Completed after 0 iterations at t[s]:    535.16
	Linear fluid (dielectric constant: 78.4, screening length: 5.74355 Bohr) occupying 0.742400 of unit cell:	Completed after 0 iterations at t[s]:    541.98
	FillingsUpdate:  mu: -0.171251800  nElectrons: 218.538919
	SubspaceRotationAdjust: set factor to 0.212
ElecMinimize: Iter:  20  G: -631.966965116315805  |grad|_K:  6.227e-08  alpha:  4.342e-01  linmin:  3.142e-08  t[s]:    550.79
	Linear fluid (dielectric constant: 78.4, screening length: 5.74355 Bohr) occupying 0.742399 of unit cell:	Completed after 2 iterations at t[s]:    556.60
	Linear fluid (dielectric constant: 78.4, screening length: 5.74355 Bohr) occupying 0.742399 of unit cell:	Completed after 0 iterations at t[s]:    565.74
	FillingsUpdate:  mu: -0.171251800  nElectrons: 218.539353
	SubspaceRotationAdjust: set factor to 0.187
ElecMinimize: Iter:  21  G: -631.966965164459680  |grad|_K:  4.608e-08  alpha:  2.662e-01  linmin:  6.114e-05  t[s]:    572.79
	Linear fluid (dielectric constant: 78.4, screening length: 5.74355 Bohr) occupying 0.742398 of unit cell:	Completed after 0 iterations at t[s]:    577.01
	Linear fluid (dielectric constant: 78.4, screening length: 5.74355 Bohr) occupying 0.742397 of unit cell:	Completed after 0 iterations at t[s]:    584.65
	FillingsUpdate:  mu: -0.171251800  nElectrons: 218.539181
	SubspaceRotationAdjust: set factor to 0.26
ElecMinimize: Iter:  22  G: -631.966965210553553  |grad|_K:  4.808e-08  alpha:  4.533e-01  linmin: -1.021e-08  t[s]:    592.48
	Linear fluid (dielectric constant: 78.4, screening length: 5.74355 Bohr) occupying 0.742394 of unit cell:	Completed after 3 iterations at t[s]:    598.56
	Linear fluid (dielectric constant: 78.4, screening length: 5.74355 Bohr) occupying 0.742396 of unit cell:	Completed after 0 iterations at t[s]:    609.04
	FillingsUpdate:  mu: -0.171251800  nElectrons: 218.538914
	SubspaceRotationAdjust: set factor to 0.199
ElecMinimize: Iter:  23  G: -631.966965223110151  |grad|_K:  6.248e-08  alpha:  1.768e-01  linmin:  1.189e-04  t[s]:    615.64
	Linear fluid (dielectric constant: 78.4, screening length: 5.74355 Bohr) occupying 0.742394 of unit cell:	Completed after 0 iterations at t[s]:    620.03
	Linear fluid (dielectric constant: 78.4, screening length: 5.74355 Bohr) occupying 0.742394 of unit cell:	Completed after 0 iterations at t[s]:    626.41
	FillingsUpdate:  mu: -0.171251800  nElectrons: 218.539051
	SubspaceRotationAdjust: set factor to 0.161
ElecMinimize: Iter:  24  G: -631.966965239802903  |grad|_K:  5.567e-08  alpha:  1.292e-01  linmin: -5.872e-09  t[s]:    634.35
	Linear fluid (dielectric constant: 78.4, screening length: 5.74355 Bohr) occupying 0.742393 of unit cell:	Completed after 0 iterations at t[s]:    639.15
	Linear fluid (dielectric constant: 78.4, screening length: 5.74355 Bohr) occupying 0.742391 of unit cell:	Completed after 2 iterations at t[s]:    649.55
ElecMinimize: 	Step increased G by 4.666140e-08, reducing alpha to 3.056450e-02.
	Linear fluid (dielectric constant: 78.4, screening length: 5.74355 Bohr) occupying 0.742394 of unit cell:	Completed after 0 iterations at t[s]:    661.69
	FillingsUpdate:  mu: -0.171251800  nElectrons: 218.539161
	SubspaceRotationAdjust: set factor to 0.1
ElecMinimize: Iter:  25  G: -631.966965259629774  |grad|_K:  4.175e-08  alpha:  3.056e-02  linmin:  8.633e-05  t[s]:    668.47
	Linear fluid (dielectric constant: 78.4, screening length: 5.74355 Bohr) occupying 0.742394 of unit cell:	Completed after 0 iterations at t[s]:    673.51
ElecMinimize: 	Predicted alpha/alphaT>3.000000, increasing alphaT to 9.169351e-02.
	Linear fluid (dielectric constant: 78.4, screening length: 5.74355 Bohr) occupying 0.742393 of unit cell:	Completed after 0 iterations at t[s]:    680.95
ElecMinimize: 	Predicted alpha/alphaT>3.000000, increasing alphaT to 2.750805e-01.
	Linear fluid (dielectric constant: 78.4, screening length: 5.74355 Bohr) occupying 0.742392 of unit cell:	Completed after 0 iterations at t[s]:    687.43
	Linear fluid (dielectric constant: 78.4, screening length: 5.74355 Bohr) occupying 0.742392 of unit cell:	Completed after 0 iterations at t[s]:    695.69
	FillingsUpdate:  mu: -0.171251800  nElectrons: 218.539426
	SubspaceRotationAdjust: set factor to 0.13
ElecMinimize: Iter:  26  G: -631.966965277430063  |grad|_K:  3.388e-08  alpha:  2.854e-01  linmin: -1.573e-07  t[s]:    703.40
	Linear fluid (dielectric constant: 78.4, screening length: 5.74355 Bohr) occupying 0.742390 of unit cell:	Completed after 0 iterations at t[s]:    708.22
	Linear fluid (dielectric constant: 78.4, screening length: 5.74355 Bohr) occupying 0.742389 of unit cell:	Completed after 1 iterations at t[s]:    716.13
ElecMinimize: 	Step increased G by 1.154012e-08, reducing alpha to 4.350054e-02.
	Linear fluid (dielectric constant: 78.4, screening length: 5.74355 Bohr) occupying 0.742391 of unit cell:	Completed after 0 iterations at t[s]:    729.31
ElecMinimize: 	Step increased G by 1.438843e-08, reducing alpha to 4.350054e-03.
	Linear fluid (dielectric constant: 78.4, screening length: 5.74355 Bohr) occupying 0.742392 of unit cell:	Completed after 0 iterations at t[s]:    740.98
ElecMinimize: 	Step increased G by 1.697526e-08, reducing alpha to 4.350054e-04.
ElecMinimize: 	Step failed to reduce G after 3 attempts. Quitting step.
ElecMinimize: 	Undoing step.
	Linear fluid (dielectric constant: 78.4, screening length: 5.74355 Bohr) occupying 0.742392 of unit cell:	Completed after 0 iterations at t[s]:    754.98
ElecMinimize: 	Step failed: resetting search direction.
	FillingsUpdate:  mu: -0.171251800  nElectrons: 218.539425
	SubspaceRotationAdjust: set factor to 0.131
ElecMinimize: Iter:  27  G: -631.966965260428651  |grad|_K:  2.670e-08  alpha:  4.350e-04
	Linear fluid (dielectric constant: 78.4, screening length: 5.74355 Bohr) occupying 0.742391 of unit cell:	Completed after 0 iterations at t[s]:    766.87
	Linear fluid (dielectric constant: 78.4, screening length: 5.74355 Bohr) occupying 0.742391 of unit cell:	Completed after 0 iterations at t[s]:    773.81
	FillingsUpdate:  mu: -0.171251800  nElectrons: 218.539645
	SubspaceRotationAdjust: set factor to 0.155
ElecMinimize: Iter:  28  G: -631.966965278605471  |grad|_K:  2.316e-08  alpha:  4.947e-01  linmin:  3.192e-07  t[s]:    781.24
	Linear fluid (dielectric constant: 78.4, screening length: 5.74355 Bohr) occupying 0.742391 of unit cell:	Completed after 0 iterations at t[s]:    786.89
	Linear fluid (dielectric constant: 78.4, screening length: 5.74355 Bohr) occupying 0.742391 of unit cell:	Completed after 0 iterations at t[s]:    795.68
	FillingsUpdate:  mu: -0.171251800  nElectrons: 218.539887
	SubspaceRotationAdjust: set factor to 0.217
ElecMinimize: Iter:  29  G: -631.966965283518562  |grad|_K:  1.301e-08  alpha:  3.193e-01  linmin: -3.245e-04  t[s]:    803.21
	Linear fluid (dielectric constant: 78.4, screening length: 5.74355 Bohr) occupying 0.742391 of unit cell:	Completed after 0 iterations at t[s]:    807.76
	Linear fluid (dielectric constant: 78.4, screening length: 5.74355 Bohr) occupying 0.742390 of unit cell:	Completed after 0 iterations at t[s]:    814.92
	FillingsUpdate:  mu: -0.171251800  nElectrons: 218.540172
	SubspaceRotationAdjust: set factor to 0.254
ElecMinimize: Iter:  30  G: -631.966965290263829  |grad|_K:  1.773e-08  alpha:  5.960e-01  linmin:  7.205e-07  t[s]:    822.26
ElecMinimize: Converged (|Delta G|<1.000000e-08 for 2 iters).
Setting wave functions to eigenvectors of Hamiltonian

# Ionic positions in lattice coordinates:
ion Ta   0.211010116660952   0.713074459871324   0.504106293641224 0
ion Ta   0.548170066244649   0.713431583129925   0.497890486218262 0
ion Ta   0.882618484436034   0.715001839879284   0.504762235284241 0
ion Ta   0.112310569072982   0.283286301454314   0.499430708534789 0
ion Ta   0.435589994766016   0.275361168789715   0.488833306426077 0
ion Ta   0.806470283160747   0.279670233870269   0.494068245288165 0
ion Ta   0.302190115539477   0.003268799885502   0.501022628340921 0
ion Ta   0.694499862671220   0.005666340715576   0.500088606053846 0
ion Ta   0.000875040066349   0.003073192661963   0.500582076466456 0
ion Te   0.179504222809373   0.886411248740916   0.392560206032082 0
ion Te   0.515414570192672   0.907360693277483   0.403260795073467 0
ion Te   0.855695634045675   0.888723786031717   0.392974413147870 0
ion Te   0.143396660078813   0.109244423696609   0.611190696683771 0
ion Te   0.481143521854337   0.103143695002373   0.596393282843298 0
ion Te   0.816303205180199   0.115536998148938   0.608521851953569 0
ion Te   0.073311357414621   0.548306296292649   0.421626604408388 0
ion Te   0.409258442949772   0.545158144437223   0.424411902308813 0
ion Te   0.742353789065567   0.544790639135643   0.424970788138253 0
ion Te   0.035217689022994   0.787159866001315   0.609557823102421 0
ion Te   0.371701975977249   0.785021288574362   0.605456245042872 0
ion Te   0.698310374578471   0.788881279354383   0.605518836848310 0
ion Te   0.284141703404443   0.204607654750204   0.388807359003666 0
ion Te   0.634633974268668   0.217686628514475   0.394168385973416 0
ion Te   0.969649842653571   0.205436515885402   0.388207402480616 0
ion Te   0.268133995130771   0.444267803379689   0.578807225166391 0
ion Te   0.917958836754386   0.449247636518723   0.583358451538810 0


# Forces in Lattice coordinates:
force Ta  -0.022110892155876  -0.040972234388301   0.003213268146965 0
force Ta  -0.003515748479354  -0.034140877153489   0.071245690573796 0
force Ta   0.030683892972070  -0.048498841610012   0.001522458708899 0
force Ta   0.000950843446446   0.060289571081523   0.017213517118611 0
force Ta   0.005807700754015   0.048048896673169  -0.060929791255309 0
force Ta   0.001919065984900   0.049615733200843  -0.032006140308411 0
force Ta   0.043421700499901  -0.008411517693816   0.014356623033593 0
force Ta  -0.063854703889997  -0.003855044547269   0.007153686631125 0
force Ta  -0.002549547149611  -0.004692729087908   0.023502922245416 0
force Te   0.002113668389830  -0.005367704945701  -0.144168186493235 0
force Te  -0.007135111710694   0.016915324194645  -0.074476029852860 0
force Te   0.005987207376758   0.002389935103964  -0.112548222129807 0
force Te  -0.001668229694103  -0.009288241124111   0.152049555190573 0
force Te   0.006800531691487  -0.026433720275741   0.086396098362609 0
force Te   0.008641648962352  -0.010211095577092   0.157188168361524 0
force Te   0.004655548116275   0.002509020270455  -0.017952741664817 0
force Te   0.002041134104490  -0.005336335001324  -0.034518993851989 0
force Te  -0.009099357582761   0.000836637011164  -0.040864461478118 0
force Te  -0.003364331484486  -0.003216502814042   0.095297553404733 0
force Te   0.009632937365139  -0.007704765460838   0.072987082913411 0
force Te  -0.009487528269029  -0.007003676476721   0.063094424216664 0
force Te   0.010812574723086   0.019310250741863  -0.110128137275882 0
force Te  -0.011521329363063   0.002864171546350  -0.062374747641887 0
force Te   0.002738952446301   0.014402487036368  -0.122992674016746 0
force Te  -0.005426481539900  -0.004987233270008   0.019593701734841 0
force Te   0.002912624451778   0.002602703496842   0.032241099984221 0

# Energy components:
   A_diel =        0.0275868225426278
   Eewald =     3373.8386206926838895
       EH =     3897.6694187627440442
     Eloc =    -7831.4001341273879007
      Enl =     -213.6193667247409280
      Exc =     -312.9287609776947647
 Exc_core =      194.4953446225183598
       KE =      222.5522798064279186
  MuShift =        0.0038362607239444
-------------------------------------
     Etot =     -669.3611748621829065
       TS =        0.0311881826920316
-------------------------------------
        F =     -669.3923630448749691
      muN =      -37.4253977546111827
-------------------------------------
        G =     -631.9669652902638290

IonicMinimize: Iter:   0  G: -631.966965290263829  |grad|_K:  0.000e+00  t[s]:    828.41
IonicMinimize: Converged (|grad|_K<1.000000e-04).

#--- Lowdin population analysis ---
# oxidation-state Ta -0.986 -0.860 -0.987 -0.935 -0.880 -0.849 -0.877 -0.898 -0.823
# oxidation-state Te +0.569 +0.620 +0.577 +0.589 +0.537 +0.585 +0.489 +0.535 +0.528 +0.574 +0.558 +0.568 +0.605 +0.523 +0.601 +0.461 +0.457


Dumping 'NbTe2.fillings' ... done
Dumping 'NbTe2.wfns' ... done
Dumping 'NbTe2.fluidState' ... done
Dumping 'NbTe2.eigenvals' ... done
End date and time: Fri Jul 17 09:03:23 2020  (Duration: 0-0:13:50.27)
Done!
