
*************** JDFTx 1.5.0  ***************

Start date and time: Fri Jul  3 22:52:57 2020
Executable jdftx_gpu with command-line: -i Neutral.in -o Neutral.out
Running on hosts (process indices):  amax (0)
Divided in process groups (process indices):  0 (0)
gpuInit: Found compatible cuda device 0 'Tesla K80'
gpuInit: Selected device 0
Resource initialization completed at t[s]:     12.50
Run totals: 1 processes, 24 threads, 1 GPUs


Input parsed successfully to the following command list (including defaults):

basis kpoint-dependent
cache-projectors no
coords-type Lattice
core-overlap-check none
coulomb-interaction Slab 001
coulomb-truncation-embed 0 0 0.5
davidson-band-ratio 1.1
dump End State
dump-name NbTe2.$VAR
elec-cutoff 20 100
elec-eigen-algo Davidson
elec-ex-corr gga-PBE
elec-smearing Gauss 0.0073499
electronic-minimize  \
	dirUpdateScheme      FletcherReeves \
	linminMethod         DirUpdateRecommended \
	nIterations          100 \
	history              15 \
	knormThreshold       0 \
	energyDiffThreshold  1e-08 \
	nEnergyDiff          2 \
	alphaTstart          1 \
	alphaTmin            1e-10 \
	updateTestStepSize   yes \
	alphaTreduceFactor   0.1 \
	alphaTincreaseFactor 3 \
	nAlphaAdjustMax      3 \
	wolfeEnergy          0.0001 \
	wolfeGradient        0.9 \
	fdTest               no
electronic-scf  \
	nIterations	500 \
	energyDiffThreshold	1e-08 \
	residualThreshold	1e-07 \
	mixFraction	0.5 \
	qMetric	0.8 \
	history	10 \
	nEigSteps	2 \
	eigDiffThreshold	1e-08 \
	mixedVariable	Density \
	qKerker	0.8 \
	qKappa	-1 \
	verbose	no \
	mixFractionMag	1.5
exchange-regularization WignerSeitzTruncated
fluid LinearPCM 298.000000 1.013250
fluid-anion F- 1 MeanFieldLJ \
	epsBulk 1 \
	pMol 0 \
	epsInf 1 \
	Pvap 0 \
	sigmaBulk 0 \
	Rvdw 2.24877 \
	Res 0 \
	tauNuc 343133
fluid-cation Na+ 1 MeanFieldLJ \
	epsBulk 1 \
	pMol 0 \
	epsInf 1 \
	Pvap 0 \
	sigmaBulk 0 \
	Rvdw 2.19208 \
	Res 0 \
	tauNuc 343133
fluid-ex-corr lda-TF lda-PZ
fluid-gummel-loop 10 1.000000e-05
fluid-minimize  \
	dirUpdateScheme      PolakRibiere \
	linminMethod         DirUpdateRecommended \
	nIterations          400 \
	history              15 \
	knormThreshold       1e-11 \
	energyDiffThreshold  0 \
	nEnergyDiff          2 \
	alphaTstart          1 \
	alphaTmin            1e-10 \
	updateTestStepSize   yes \
	alphaTreduceFactor   0.1 \
	alphaTincreaseFactor 3 \
	nAlphaAdjustMax      6 \
	wolfeEnergy          0.0001 \
	wolfeGradient        0.9 \
	fdTest               no
fluid-solvent H2O 55.338 ScalarEOS \
	epsBulk 78.4 \
	pMol 0.92466 \
	epsInf 1.77 \
	Pvap 1.06736e-10 \
	sigmaBulk 4.62e-05 \
	Rvdw 2.61727 \
	Res 1.42 \
	tauNuc 343133 \
	poleEl 15 7 1
forces-output-coords Positions
initial-state NbTe2.$VAR
ion Bi   0.250000000000000   0.658213877710277   0.653760373138241 0
ion Bi   0.083329999000000   0.341786158289726   0.346249657861761 0
ion Bi   0.250000000000000   0.298898498022738   0.414680921656561 0
ion Bi   0.083329999000000   0.701101501977261   0.585319078343439 0
ion Bi   0.250000000000000   0.077527372775734   0.385282341785076 0
ion Bi   0.083329999000000   0.922472645224267   0.614717626214921 0
ion Bi   0.250000000000000   0.976890887510067   0.548989633693962 0
ion Bi   0.083329999000000   0.023109106489932   0.451010366306038 0
ion Bi   0.250000000000000   0.201258668717421   0.575496194896675 0
ion Bi   0.083329999000000   0.798741277282582   0.424513771103325 0
ion Bi   0.250000000000000   0.751063699509808   0.491662610370308 0
ion Bi   0.083329999000000   0.248936300490192   0.508347387629695 0
ion Bi   0.250000000000000   0.525984972673704   0.466902346614342 0
ion Bi   0.083329999000000   0.474014991326293   0.533107652385657 0
ion Bi   0.083329999000000   0.565090186258550   0.369975743617699 0
ion Bi   0.250000000000000   0.434909813741450   0.630024224382298 0
ion Bi   0.083329999000000   0.384585553494912   0.698284787500246 0
ion Bi   0.250000000000000   0.615414482505091   0.301715180499759 0
ion Bi   0.583329972000001   0.658213877710277   0.653760373138241 0
ion Bi   0.416669992000003   0.341786158289726   0.346249657861761 0
ion Bi   0.583329972000001   0.298898498022738   0.414680921656561 0
ion Bi   0.416669992000003   0.701101501977261   0.585319078343439 0
ion Bi   0.583329972000001   0.077527372775734   0.385282341785076 0
ion Bi   0.416669992000003   0.922472645224267   0.614717626214921 0
ion Bi   0.583329972000001   0.976890887510067   0.548989633693962 0
ion Bi   0.416669992000003   0.023109106489932   0.451010366306038 0
ion Bi   0.583329972000001   0.201258668717421   0.575496194896675 0
ion Bi   0.416669992000003   0.798741277282582   0.424513771103325 0
ion Bi   0.583329972000001   0.751063699509808   0.491662610370308 0
ion Bi   0.416669992000003   0.248936300490192   0.508347387629695 0
ion Bi   0.583329972000001   0.525984972673704   0.466902346614342 0
ion Bi   0.416669992000003   0.474014991326293   0.533107652385657 0
ion Bi   0.416669992000003   0.565090186258550   0.369975743617699 0
ion Bi   0.583329972000001   0.434909813741450   0.630024224382298 0
ion Bi   0.416669992000003   0.384585553494912   0.698284787500246 0
ion Bi   0.583329972000001   0.615414482505091   0.301715180499759 0
ion Bi   0.916670027999999   0.658213877710277   0.653760373138241 0
ion Bi   0.749999981999999   0.341786158289726   0.346249657861761 0
ion Bi   0.916670027999999   0.298898498022738   0.414680921656561 0
ion Bi   0.749999981999999   0.701101501977261   0.585319078343439 0
ion Bi   0.916670027999999   0.077527372775734   0.385282341785076 0
ion Bi   0.749999981999999   0.922472645224267   0.614717626214921 0
ion Bi   0.916670027999999   0.976890887510067   0.548989633693962 0
ion Bi   0.749999981999999   0.023109106489932   0.451010366306038 0
ion Bi   0.916670027999999   0.201258668717421   0.575496194896675 0
ion Bi   0.749999981999999   0.798741277282582   0.424513771103325 0
ion Bi   0.916670027999999   0.751063699509808   0.491662610370308 0
ion Bi   0.749999981999999   0.248936300490192   0.508347387629695 0
ion Bi   0.916670027999999   0.525984972673704   0.466902346614342 0
ion Bi   0.749999981999999   0.474014991326293   0.533107652385657 0
ion Bi   0.749999981999999   0.565090186258550   0.369975743617699 0
ion Bi   0.916670027999999   0.434909813741450   0.630024224382298 0
ion Bi   0.749999981999999   0.384585553494912   0.698284787500246 0
ion Bi   0.916670027999999   0.615414482505091   0.301715180499759 0
ion I   0.083329999000000   0.595013392979408   0.741300745768196 0
ion I   0.250000000000000   0.404986607020592   0.258689255231804 0
ion I   0.083329999000000   0.159132875204805   0.669129090738772 0
ion I   0.250000000000000   0.840867142795197   0.330850912261225 0
ion I   0.416669992000003   0.595013392979408   0.741300745768196 0
ion I   0.583329972000001   0.404986607020592   0.258689255231804 0
ion I   0.416669992000003   0.159132875204805   0.669129090738772 0
ion I   0.583329972000001   0.840867142795197   0.330850912261225 0
ion I   0.749999981999999   0.595013392979408   0.741300745768196 0
ion I   0.916670027999999   0.404986607020592   0.258689255231804 0
ion I   0.749999981999999   0.159132875204805   0.669129090738772 0
ion I   0.916670027999999   0.840867142795197   0.330850912261225 0
ion-species GBRV/$ID_pbe.uspp
ion-width Ecut
ionic-minimize  \
	dirUpdateScheme      L-BFGS \
	linminMethod         DirUpdateRecommended \
	nIterations          0 \
	history              15 \
	knormThreshold       0.0001 \
	energyDiffThreshold  1e-06 \
	nEnergyDiff          2 \
	alphaTstart          1 \
	alphaTmin            1e-10 \
	updateTestStepSize   yes \
	alphaTreduceFactor   0.1 \
	alphaTincreaseFactor 3 \
	nAlphaAdjustMax      3 \
	wolfeEnergy          0.0001 \
	wolfeGradient        0.9 \
	fdTest               no
kpoint   0.000000000000   0.000000000000   0.000000000000  1.00000000000000
kpoint-folding 3 3 1 
latt-move-scale 1 1 1
latt-scale 1 1 1 
lattice Triclinic 25.1549 25.1035 56.5963 90 90 90
lattice-minimize  \
	dirUpdateScheme      L-BFGS \
	linminMethod         DirUpdateRecommended \
	nIterations          0 \
	history              15 \
	knormThreshold       0 \
	energyDiffThreshold  1e-06 \
	nEnergyDiff          2 \
	alphaTstart          1 \
	alphaTmin            1e-10 \
	updateTestStepSize   yes \
	alphaTreduceFactor   0.1 \
	alphaTincreaseFactor 3 \
	nAlphaAdjustMax      3 \
	wolfeEnergy          0.0001 \
	wolfeGradient        0.9 \
	fdTest               no
lcao-params -1 1e-06 0.0073499
pcm-variant CANDLE
spintype no-spin
subspace-rotation-factor 1 yes
symmetries automatic
symmetry-threshold 0.0001



---------- Setting up symmetries ----------

Found 8 point-group symmetries of the bravais lattice
Found 6 space-group symmetries with basis
Applied RMS atom displacement 6.87155e-05 bohrs to make symmetries exact.

---------- Initializing the Grid ----------
R = 
[    25.1549          0          0  ]
[          0    25.1035          0  ]
[          0          0    56.5963  ]
unit cell volume = 35739.2
G =
[    0.24978          0          0  ]
[          0   0.250291          0  ]
[          0          0   0.111018  ]
Minimum fftbox size, Smin = [  116  116  256  ]
Chosen fftbox size, S = [  120  120  256  ]

---------- Initializing tighter grid for wavefunction operations ----------
R = 
[    25.1549          0          0  ]
[          0    25.1035          0  ]
[          0          0    56.5963  ]
unit cell volume = 35739.2
G =
[    0.24978          0          0  ]
[          0   0.250291          0  ]
[          0          0   0.111018  ]
Minimum fftbox size, Smin = [  104  104  228  ]
Chosen fftbox size, S = [  108  108  240  ]

---------- Exchange Correlation functional ----------
Initalized PBE GGA exchange.
Initalized PBE GGA correlation.

---------- Setting up pseudopotentials ----------
Width of ionic core gaussian charges (only for fluid interactions / plotting) set to 0.397384

Reading pseudopotential file '/home/guoxy/vasp/jdftx-1.5.0/build/pseudopotentials/GBRV/bi_pbe.uspp':
  Title: Bi.  Created by USPP 7.3.6 on 14-9-2013
  Reference state energy: -92.204004.  15 valence electrons in orbitals:
    |520>  occupation: 10  eigenvalue: -1.293263
    |600>  occupation: 2  eigenvalue: -0.812524
    |610>  occupation: 2  eigenvalue: -0.420386
  lMax: 2  lLocal: 3  QijEcut: 5
  6 projectors sampled on a log grid with 747 points:
    l: 0  eig: -0.812524  rCut: 2.5
    l: 0  eig: 0.500000  rCut: 2.5
    l: 1  eig: -0.420386  rCut: 2.5
    l: 1  eig: 1.000000  rCut: 2.5
    l: 2  eig: -1.293263  rCut: 2.3
    l: 2  eig: -0.500000  rCut: 2.3
  Partial core density with radius 1
  Transforming core density to a uniform radial grid of dG=0.02 with 1282 points.
  Transforming local potential to a uniform radial grid of dG=0.02 with 1282 points.
  Transforming nonlocal projectors to a uniform radial grid of dG=0.02 with 432 points.
  Transforming density augmentations to a uniform radial grid of dG=0.02 with 1282 points.
  Transforming atomic orbitals to a uniform radial grid of dG=0.02 with 432 points.
  Core radius for overlap checks: 2.50 bohrs.

Reading pseudopotential file '/home/guoxy/vasp/jdftx-1.5.0/build/pseudopotentials/GBRV/i_pbe.uspp':
  Title: I.  Created by USPP 7.3.6 on 14-9-2013
  Reference state energy: -32.770235.  7 valence electrons in orbitals:
    |500>  occupation: 2  eigenvalue: -0.639712
    |510>  occupation: 5  eigenvalue: -0.260406
  lMax: 2  lLocal: 3  QijEcut: 5
  6 projectors sampled on a log grid with 725 points:
    l: 0  eig: -0.639710  rCut: 1.9
    l: 0  eig: 0.000000  rCut: 1.9
    l: 1  eig: -0.260404  rCut: 2
    l: 1  eig: 0.000000  rCut: 2
    l: 2  eig: -0.500000  rCut: 2.45
    l: 2  eig: 0.500000  rCut: 2.45
  Partial core density with radius 1.3
  Transforming core density to a uniform radial grid of dG=0.02 with 1282 points.
  Transforming local potential to a uniform radial grid of dG=0.02 with 1282 points.
  Transforming nonlocal projectors to a uniform radial grid of dG=0.02 with 432 points.
  Transforming density augmentations to a uniform radial grid of dG=0.02 with 1282 points.
  Transforming atomic orbitals to a uniform radial grid of dG=0.02 with 432 points.
  Core radius for overlap checks: 2.45 bohrs.

Initialized 2 species with 66 total atoms.

Folded 1 k-points by 3x3x1 to 9 k-points.

---------- Setting up k-points, bands, fillings ----------
Adding inversion symmetry to k-mesh for non-inversion-symmetric unit cell.
Reduced to 4 k-points under symmetry. 
Computing the number of bands and number of electrons
Calculating initial fillings.
nElectrons: 894.000000   nBands: 534   nStates: 4

----- Setting up reduced wavefunction bases (one per k-point) -----
average nbasis = 152663.667 , ideal nbasis = 152680.725

---------- Setting up coulomb interaction ----------
Fluid mode embedding: using embedded box, but periodic Coulomb kernel.
(Fluid response is responsible for (approximate) separation between periodic images.)
Setting up double-sized grid for truncated Coulomb potentials:
R = 
[    25.1549          0          0  ]
[          0    25.1035          0  ]
[          0          0    113.193  ]
unit cell volume = 71478.5
G =
[    0.24978          0          0  ]
[          0   0.250291          0  ]
[          0          0  0.0555088  ]
Chosen fftbox size, S = [  120  120  512  ]
Integer grid location selected as the embedding center:
   Grid: [  0  0  128  ]
   Lattice: [  0  0  0.5  ]
   Cartesian: [  0  0  28.2982  ]
Constructing Wigner-Seitz cell: 6 faces (6 quadrilaterals, 0 hexagons)
Range-separation parameter for embedded mesh potentials due to point charges: 0.593177 bohrs.

Initializing van der Waals corrections
	NOTE: vdW corrections apply only for interactions with fluid.
	Bi:  C6:  893.28 Eh-a0^6  R0: 3.555 a0 (WARNING: beyond Grimme's data set)
	 I:  C6:  546.38 Eh-a0^6  R0: 3.575 a0

---------- Setting up ewald sum ----------
Optimum gaussian width for ewald sums = 8.235902 bohr.
Real space sum over 605 unit cells with max indices [  5  5  2  ]
Reciprocal space sum over 7605 terms with max indices [  6  6  22  ]

---------- Allocating electronic variables ----------
Initializing wave functions:  linear combination of atomic orbitals
Bi pseudo-atom occupations:   s ( 2 )  p ( 3 )  d ( 10 )
I pseudo-atom occupations:   s ( 2 )  p ( 5 )
	FillingsUpdate:  mu: -0.172323366  nElectrons: 894.000000
LCAOMinimize: Iter:   0  F: -4018.6087891341639988  |grad|_K:  2.514e-03  alpha:  1.000e+00
	FillingsUpdate:  mu: -0.149506460  nElectrons: 894.000000
LCAOMinimize: Iter:   1  F: -4018.7707621725626268  |grad|_K:  2.064e-03  alpha:  2.452e-02  linmin: -2.374e-01  cgtest:  9.832e-01  t[s]:    226.22
LCAOMinimize: Encountered beta<0, resetting CG.
LCAOMinimize: 	Predicted alpha/alphaT>3.000000, increasing alphaT to 7.357170e-02.
	FillingsUpdate:  mu: -0.071269280  nElectrons: 894.000000
LCAOMinimize: Iter:   2  F: -4019.1425667305884417  |grad|_K:  1.208e-03  alpha:  1.581e-01  linmin:  3.096e-02  cgtest: -2.985e-01  t[s]:    325.63
	FillingsUpdate:  mu: +0.011485841  nElectrons: 894.000000
LCAOMinimize: Iter:   3  F: -4019.2435603988565163  |grad|_K:  1.836e-03  alpha:  2.195e-01  linmin:  1.115e-01  cgtest:  5.767e-01  t[s]:    402.85
	FillingsUpdate:  mu: +0.013269356  nElectrons: 894.000000
LCAOMinimize: Iter:   4  F: -4019.2551139248798791  |grad|_K:  1.826e-03  alpha:  1.536e-02  linmin: -1.262e-02  cgtest:  9.757e-01  t[s]:    481.37
LCAOMinimize: 	Predicted alpha/alphaT>3.000000, increasing alphaT to 4.606613e-02.
	FillingsUpdate:  mu: -0.069634742  nElectrons: 894.000000
LCAOMinimize: Iter:   5  F: -4019.4144346956481968  |grad|_K:  2.299e-04  alpha:  8.031e-02  linmin: -1.953e-01  cgtest:  6.950e-01  t[s]:    579.96
LCAOMinimize: Encountered beta<0, resetting CG.
	FillingsUpdate:  mu: -0.078241335  nElectrons: 894.000000
LCAOMinimize: Iter:   6  F: -4019.4191554384092342  |grad|_K:  1.117e-04  alpha:  1.555e-01  linmin: -3.937e-03  cgtest:  1.075e-02  t[s]:    657.54
	FillingsUpdate:  mu: -0.074044553  nElectrons: 894.000000
LCAOMinimize: Iter:   7  F: -4019.4203302326791345  |grad|_K:  4.370e-05  alpha:  1.632e-01  linmin:  1.714e-03  cgtest: -2.789e-02  t[s]:    734.47
	FillingsUpdate:  mu: -0.074937303  nElectrons: 894.000000
LCAOMinimize: Iter:   8  F: -4019.4205471179830056  |grad|_K:  2.375e-05  alpha:  1.993e-01  linmin:  6.061e-04  cgtest:  1.155e-02  t[s]:    813.46
	FillingsUpdate:  mu: -0.074980309  nElectrons: 894.000000
LCAOMinimize: Iter:   9  F: -4019.4205905588041787  |grad|_K:  2.894e-05  alpha:  1.347e-01  linmin:  1.529e-06  cgtest:  2.827e-03  t[s]:    892.03
	FillingsUpdate:  mu: -0.074886435  nElectrons: 894.000000
LCAOMinimize: Iter:  10  F: -4019.4206510891813195  |grad|_K:  9.776e-06  alpha:  1.262e-01  linmin:  1.352e-04  cgtest: -9.528e-03  t[s]:    969.60
	FillingsUpdate:  mu: -0.074677665  nElectrons: 894.000000
LCAOMinimize: Iter:  11  F: -4019.4206666112122548  |grad|_K:  3.870e-06  alpha:  2.838e-01  linmin: -1.311e-04  cgtest:  3.499e-03  t[s]:   1047.42
	FillingsUpdate:  mu: -0.074774399  nElectrons: 894.000000
LCAOMinimize: Iter:  12  F: -4019.4206681692207894  |grad|_K:  3.721e-06  alpha:  1.817e-01  linmin:  4.720e-06  cgtest: -9.133e-04  t[s]:   1124.90
	FillingsUpdate:  mu: -0.074788138  nElectrons: 894.000000
LCAOMinimize: Iter:  13  F: -4019.4206687046271327  |grad|_K:  1.744e-06  alpha:  6.756e-02  linmin:  3.620e-05  cgtest: -4.967e-04  t[s]:   1202.25
	FillingsUpdate:  mu: -0.074731378  nElectrons: 894.000000
LCAOMinimize: Iter:  14  F: -4019.4206690328105651  |grad|_K:  1.293e-06  alpha:  1.881e-01  linmin: -2.652e-04  cgtest:  3.033e-03  t[s]:   1280.35
LCAOMinimize: Converged (|Delta F|<1.000000e-06 for 2 iters).
----- createFluidSolver() ----- (Fluid-side solver setup)
   Initializing fluid molecule 'H2O'
     Initializing site 'O'
       Electron density: proportional to exp(-r/0.36935)*erfc((r-0.51523)/0.36823) with norm 6.826
       Charge density: gaussian nuclear width 0.478731 with net site charge 0.826
       Polarizability: cuspless exponential with width 0.32 and norm 3.73
       Hard sphere radius: 2.57003 bohrs
       Positions in reference frame:
         [ +0.000000 +0.000000 +0.000000 ]
     Initializing site 'H'
       Electron density: proportional to exp(-r/0.34641)*erfc((r-0)/0.390882) with norm 0.587
       Charge density: gaussian nuclear width 0.377945 with net site charge -0.413
       Polarizability: cuspless exponential with width 0.39 and norm 3.3
       Positions in reference frame:
         [ +0.000000 -1.441945 +1.122523 ]
         [ +0.000000 +1.441945 +1.122523 ]
     Net charge: 0   dipole magnitude: 0.927204
     Initializing spherical shell mfKernel with radius 2.61727 Bohr
     deltaS corrections:
       site 'O': -7.54299
       site 'H': -6.83917
   Initializing fluid molecule 'Na+'
     Initializing site 'Na'
       Electron density: proportional to exp(-r/0.19682)*erfc((r-0.71491)/0.41314) with norm 8.1383
       Charge density: gaussian nuclear width 0.365347 with net site charge -1
       Hard sphere radius: 1.86327 bohrs
       Positions in reference frame:
         [ +0.000000 +0.000000 +0.000000 ]
     Net charge: -1   dipole magnitude: 0
     Initializing gaussian mfKernel with width: 1.55004 Bohr
     deltaS corrections:
       site 'Na': -22.3555
   Initializing fluid molecule 'F-'
     Initializing site 'F'
       Electron density: proportional to exp(-r/0.38886)*erfc((r-0)/0.438782) with norm 8
       Charge density: gaussian nuclear width 0.374796 with net site charge 1
       Hard sphere radius: 2.39995 bohrs
       Positions in reference frame:
         [ +0.000000 +0.000000 +0.000000 ]
     Net charge: 1   dipole magnitude: 0
     Initializing gaussian mfKernel with width: 1.59012 Bohr
     deltaS corrections:
       site 'F': -9.04335

Correction to mu due to finite nuclear width = -0.0124097
   Cavity determined by nc: 0.00142 and sigma: 0.707107
   Nonlocal vdW cavity from gaussian model electron density with norm = 8 and sigma = 0.993594 bohr
   Charge asymmetry in cavity with sensitivity pCavity = 36.5 e-bohr/Eh
   Electrostatic cavity expanded by eta = 1.46 bohrs
   Weighted density cavitation model constrained by Nbulk: 0.0049383 bohr^-3, Pvap: 3.14029 kPa, Rvdw: 2.61727 bohr and sigmaBulk: 4.62e-05 Eh/bohr^2 at T: 298 K.
   Weighted density dispersion model using vdW pair potentials with single solvent site with sqrtC6eff: 0.77 SI.


---- Citations for features of the code used in this run ----

   Software package:
      R. Sundararaman, K. Letchworth-Weaver, K.A. Schwarz, D. Gunceler, Y. Ozhabes and T.A. Arias, 'JDFTx: software for joint density-functional theory', SoftwareX 6, 278 (2017)

   gga-PBE exchange-correlation functional:
      J.P. Perdew, K. Burke and M. Ernzerhof, Phys. Rev. Lett. 77, 3865 (1996)

   Pseudopotentials:
      KF Garrity, JW Bennett, KM Rabe and D Vanderbilt, Comput. Mater. Sci. 81, 446 (2014)

   Truncated Coulomb potentials:
      R. Sundararaman and T.A. Arias, Phys. Rev. B 87, 165122 (2013)

   Van der Waals correction pair-potentials:
      S. Grimme, J. Comput. Chem. 27, 1787 (2006)

   Charge-asymmetric nonlocally-determined local-electric (CANDLE) solvation model:
      R. Sundararaman and W.A. Goddard III, J. Chem. Phys. 142, 064107 (2015)

This list may not be complete. Please suggest additional citations or
report any other bugs at https://github.com/shankar1729/jdftx/issues

Initialization completed successfully at t[s]:   1311.56

Fluid solver invoked on fresh (partially random / LCAO) wavefunctions
Running a vacuum solve first:

-------- Initial electronic minimization -----------
Will mix electronic density at each iteration.
	FillingsUpdate:  mu: -0.074731378  nElectrons: 894.000000

Stack trace:
	 0: /home/guoxy/vasp/jdftx-1.5.0/build/libjdftx_gpu.so(_Z10printStackb+0x34) [0x2b78dc8eded4]
	 1: /home/guoxy/vasp/jdftx-1.5.0/build/libjdftx_gpu.so(_Z14stackTraceExiti+0xd) [0x2b78dc8ee3cd]
	 2: /home/guoxy/vasp/jdftx-1.5.0/build/libjdftx_gpu.so(_Z16matrixSubGet_gpuiiiiiiiPK7complexPS_+0x132) [0x2b78dcb559a2]
	 3: /home/guoxy/vasp/jdftx-1.5.0/build/libjdftx_gpu.so(_ZNK6matrixclEiiiiii+0x151) [0x2b78dc8ff7c1]
	 4: /home/guoxy/vasp/jdftx-1.5.0/build/libjdftx_gpu.so(_ZNK19matrixScaledTransOpcv6matrixEv+0x20c) [0x2b78dc90117c]
	 5: /home/guoxy/vasp/jdftx-1.5.0/build/libjdftx_gpu.so(_ZNK11SpeciesInfo27augmentDensitySphericalGradERK13QuantumNumberRK6matrixRS3_+0x48d) [0x2b78dca0d3bd]
	 6: /home/guoxy/vasp/jdftx-1.5.0/build/libjdftx_gpu.so(_ZNK7IonInfo27augmentDensitySphericalGradERK13QuantumNumberRKSt6vectorI6matrixSaIS4_EERS6_+0x52) [0x2b78dc9c6792]
	 7: /home/guoxy/vasp/jdftx-1.5.0/build/libjdftx_gpu.so(_ZN8ElecVars16applyHamiltonianEiRK10diagMatrixR12ColumnBundleR8Energiesb+0x3dc) [0x2b78dc9753bc]
	 8: /home/guoxy/vasp/jdftx-1.5.0/build/libjdftx_gpu.so(_ZN8ElecVars17elecEnergyAndGradER8EnergiesP12ElecGradientS3_b+0x487) [0x2b78dc975bb7]
	 9: /home/guoxy/vasp/jdftx-1.5.0/build/libjdftx_gpu.so(_ZN3SCF8minimizeEv+0x1c9) [0x2b78dc9f3059]
	10: /home/guoxy/vasp/jdftx-1.5.0/build/libjdftx_gpu.so(_Z12elecMinimizeR10Everything+0x14b) [0x2b78dc96b97b]
	11: /home/guoxy/vasp/jdftx-1.5.0/build/libjdftx_gpu.so(_Z17elecFluidMinimizeR10Everything+0xd1b) [0x2b78dc96cc4b]
	12: /home/guoxy/vasp/jdftx-1.5.0/build/libjdftx_gpu.so(+0x3b2009) [0x2b78dc9d1009]
	13: /home/guoxy/vasp/jdftx-1.5.0/build/libjdftx_gpu.so(_ZN11MinimizableI13IonicGradientE5lBFGSERK14MinimizeParams+0x9b) [0x2b78dc9d32ab]
	14: /home/guoxy/vasp/jdftx-1.5.0/build/libjdftx_gpu.so(_ZN11MinimizableI13IonicGradientE8minimizeERK14MinimizeParams+0x8d5) [0x2b78dc9d4b85]
	15: /home/guoxy/vasp/jdftx-1.5.0/build/libjdftx_gpu.so(_ZN14IonicMinimizer8minimizeERK14MinimizeParams+0xd) [0x2b78dc9d140d]
	16: jdftx_gpu(main+0xe39) [0x405cb9]
	17: /lib/x86_64-linux-gnu/libc.so.6(__libc_start_main+0xf0) [0x2b78dd706830]
	18: jdftx_gpu(_start+0x29) [0x406d59]
Writing 'jdftx-stacktrace' (for use with script printStackTrace): done.
