
*************** JDFTx 1.5.0  ***************

Start date and time: Fri Jul 17 22:51:18 2020
Executable jdftx_gpu with command-line: -i Charged.in -o Charged.out
Running on hosts (process indices):  amax (0-5)
Divided in process groups (process indices):  0 (0)  1 (1)  2 (2)  3 (3)  4 (4)  5 (5)
gpuInit: Found compatible cuda device 0 'Tesla K80'
gpuInit: Found compatible cuda device 1 'Tesla K80'
gpuInit: Found compatible cuda device 2 'Tesla K80'
gpuInit: Found compatible cuda device 3 'Tesla K80'
gpuInit: Found compatible cuda device 4 'Tesla K80'
gpuInit: Found compatible cuda device 5 'Tesla K80'
gpuInit: Selected device 0
Resource initialization completed at t[s]:      8.47
Run totals: 6 processes, 24 threads, 6 GPUs


Input parsed successfully to the following command list (including defaults):

basis kpoint-dependent
cache-projectors no
coords-type Lattice
core-overlap-check none
coulomb-interaction Slab 001
coulomb-truncation-embed 0 0 0.5
davidson-band-ratio 1.1
dump End State
dump-name NbTe2.$VAR
elec-cutoff 20 100
elec-eigen-algo Davidson
elec-ex-corr gga-PBE
elec-smearing Gauss 0.0073499
electronic-minimize  \
	dirUpdateScheme      FletcherReeves \
	linminMethod         DirUpdateRecommended \
	nIterations          500 \
	history              15 \
	knormThreshold       0 \
	energyDiffThreshold  1e-08 \
	nEnergyDiff          2 \
	alphaTstart          1 \
	alphaTmin            1e-10 \
	updateTestStepSize   yes \
	alphaTreduceFactor   0.1 \
	alphaTincreaseFactor 3 \
	nAlphaAdjustMax      3 \
	wolfeEnergy          0.0001 \
	wolfeGradient        0.9 \
	fdTest               no
exchange-regularization WignerSeitzTruncated
fluid LinearPCM 298.000000 1.013250
fluid-anion F- 1 MeanFieldLJ \
	epsBulk 1 \
	pMol 0 \
	epsInf 1 \
	Pvap 0 \
	sigmaBulk 0 \
	Rvdw 2.24877 \
	Res 0 \
	tauNuc 343133
fluid-cation Na+ 1 MeanFieldLJ \
	epsBulk 1 \
	pMol 0 \
	epsInf 1 \
	Pvap 0 \
	sigmaBulk 0 \
	Rvdw 2.19208 \
	Res 0 \
	tauNuc 343133
fluid-ex-corr lda-TF lda-PZ
fluid-gummel-loop 10 1.000000e-05
fluid-minimize  \
	dirUpdateScheme      PolakRibiere \
	linminMethod         DirUpdateRecommended \
	nIterations          400 \
	history              15 \
	knormThreshold       1e-11 \
	energyDiffThreshold  0 \
	nEnergyDiff          2 \
	alphaTstart          1 \
	alphaTmin            1e-10 \
	updateTestStepSize   yes \
	alphaTreduceFactor   0.1 \
	alphaTincreaseFactor 3 \
	nAlphaAdjustMax      6 \
	wolfeEnergy          0.0001 \
	wolfeGradient        0.9 \
	fdTest               no
fluid-solvent H2O 55.338 ScalarEOS \
	epsBulk 78.4 \
	pMol 0.92466 \
	epsInf 1.77 \
	Pvap 1.06736e-10 \
	sigmaBulk 4.62e-05 \
	Rvdw 2.61727 \
	Res 1.42 \
	tauNuc 343133 \
	poleEl 15 7 1
forces-output-coords Positions
initial-state NbTe2.$VAR
ion Li   0.249999999365346   0.138480627676396   0.519765368209435 0
ion Li   0.583333332698679   0.138480627676396   0.519765368209435 0
ion Li   0.916666666032012   0.138480627676396   0.519765368209435 0
ion Li   0.250000000613280   0.849344287261574   0.607762461400828 0
ion Li   0.583333333946613   0.849344287261574   0.607762461400828 0
ion Li   0.916666667279947   0.849344287261574   0.607762461400828 0
ion Li   0.083333332478524   0.150636998543358   0.392231643806340 0
ion Li   0.416666665811857   0.150636998543358   0.392231643806340 0
ion Li   0.749999999145191   0.150636998543358   0.392231643806340 0
ion Li   0.083333333609312   0.861554631968501   0.480251796675669 0
ion Li   0.416666666942646   0.861554631968501   0.480251796675669 0
ion Li   0.750000000275979   0.861554631968501   0.480251796675669 0
ion Cu   0.083333332195495   0.501962207303776   0.566636796979411 0
ion Cu   0.416666665528828   0.501962207303776   0.566636796979411 0
ion Cu   0.749999998862162   0.501962207303776   0.566636796979411 0
ion Cu   0.083333334328322   0.169576818453279   0.658851103381099 0
ion Cu   0.416666667661656   0.169576818453279   0.658851103381099 0
ion Cu   0.750000000994989   0.169576818453279   0.658851103381099 0
ion Cu   0.250000000222167   0.830369691327466   0.341107779664638 0
ion Cu   0.583333333555500   0.830369691327466   0.341107779664638 0
ion Cu   0.916666666888833   0.830369691327466   0.341107779664638 0
ion Cu   0.250000000147743   0.498082374255930   0.433392104743641 0
ion Cu   0.583333333481076   0.498082374255930   0.433392104743641 0
ion Cu   0.916666666814409   0.498082374255930   0.433392104743641 0
ion F   0.083333331740375   0.319346120368948   0.507616456699274 0
ion F   0.416666665073708   0.319346120368948   0.507616456699274 0
ion F   0.749999998407042   0.319346120368948   0.507616456699274 0
ion F   0.083333333440433   0.990175753309549   0.555823732594357 0
ion F   0.416666666773766   0.990175753309549   0.555823732594357 0
ion F   0.750000000107099   0.990175753309549   0.555823732594357 0
ion F   0.083333333885875   0.689737103450906   0.620225388441136 0
ion F   0.416666667219209   0.689737103450906   0.620225388441136 0
ion F   0.750000000552542   0.689737103450906   0.620225388441136 0
ion F   0.249999999674195   0.330528927901049   0.627940784217324 0
ion F   0.583333333007528   0.330528927901049   0.627940784217324 0
ion F   0.916666666340861   0.330528927901049   0.627940784217324 0
ion F   0.250000001962483  -0.000307335671843   0.679208439746356 0
ion F   0.583333335295817  -0.000307335671843   0.679208439746356 0
ion F   0.916666668629150  -0.000307335671843   0.679208439746356 0
ion F   0.083333334444566   1.000233200258994   0.320743502879832 0
ion F   0.416666667777899   1.000233200258994   0.320743502879832 0
ion F   0.750000001111232   1.000233200258994   0.320743502879832 0
ion F   0.083333332390388   0.669457052666533   0.372028174053647 0
ion F   0.416666665723721   0.669457052666533   0.372028174053647 0
ion F   0.749999999057054   0.669457052666533   0.372028174053647 0
ion F   0.249999998972670   0.310300048619681   0.379814583187908 0
ion F   0.583333332306003   0.310300048619681   0.379814583187908 0
ion F   0.916666665639336   0.310300048619681   0.379814583187908 0
ion F   0.250000000535626   0.009826392736341   0.444185391087150 0
ion F   0.583333333868959   0.009826392736341   0.444185391087150 0
ion F   0.916666667202293   0.009826392736341   0.444185391087150 0
ion F   0.249999999993202   0.680695099569561   0.492414492231969 0
ion F   0.583333333326535   0.680695099569561   0.492414492231969 0
ion F   0.916666666659869   0.680695099569561   0.492414492231969 0
ion-species GBRV/$ID_pbe.uspp
ion-width Ecut
ionic-minimize  \
	dirUpdateScheme      L-BFGS \
	linminMethod         DirUpdateRecommended \
	nIterations          0 \
	history              15 \
	knormThreshold       0.0001 \
	energyDiffThreshold  1e-06 \
	nEnergyDiff          2 \
	alphaTstart          1 \
	alphaTmin            1e-10 \
	updateTestStepSize   yes \
	alphaTreduceFactor   0.1 \
	alphaTincreaseFactor 3 \
	nAlphaAdjustMax      3 \
	wolfeEnergy          0.0001 \
	wolfeGradient        0.9 \
	fdTest               no
kpoint   0.000000000000   0.000000000000   0.000000000000  1.00000000000000
kpoint-folding 4 5 1 
latt-move-scale 1 1 1
latt-scale 1 1 1 
lattice Triclinic 15.9263 13.9131 42.8349 90 90 90
lattice-minimize  \
	dirUpdateScheme      L-BFGS \
	linminMethod         DirUpdateRecommended \
	nIterations          0 \
	history              15 \
	knormThreshold       0 \
	energyDiffThreshold  1e-06 \
	nEnergyDiff          2 \
	alphaTstart          1 \
	alphaTmin            1e-10 \
	updateTestStepSize   yes \
	alphaTreduceFactor   0.1 \
	alphaTincreaseFactor 3 \
	nAlphaAdjustMax      3 \
	wolfeEnergy          0.0001 \
	wolfeGradient        0.9 \
	fdTest               no
lcao-params -1 1e-06 0.0073499
pcm-variant CANDLE
spintype no-spin
subspace-rotation-factor 1 yes
symmetries automatic
symmetry-threshold 0.0001
target-mu -0.171252 no




---------- Setting up symmetries ----------

Found 8 point-group symmetries of the bravais lattice
Found 6 space-group symmetries with basis
Applied RMS atom displacement 1.41555e-08 bohrs to make symmetries exact.

---------- Initializing the Grid ----------
R = 
[    15.9263          0          0  ]
[          0    13.9131          0  ]
[          0          0    42.8349  ]
unit cell volume = 9491.57
G =
[   0.394515          0          0  ]
[          0   0.451602          0  ]
[          0          0   0.146684  ]
Minimum fftbox size, Smin = [  72  64  196  ]
Chosen fftbox size, S = [  72  64  196  ]

---------- Initializing tighter grid for wavefunction operations ----------
R = 
[    15.9263          0          0  ]
[          0    13.9131          0  ]
[          0          0    42.8349  ]
unit cell volume = 9491.57
G =
[   0.394515          0          0  ]
[          0   0.451602          0  ]
[          0          0   0.146684  ]
Minimum fftbox size, Smin = [  68  60  176  ]
Chosen fftbox size, S = [  70  60  180  ]

---------- Exchange Correlation functional ----------
Initalized PBE GGA exchange.
Initalized PBE GGA correlation.

---------- Setting up pseudopotentials ----------
Width of ionic core gaussian charges (only for fluid interactions / plotting) set to 0.397384

Reading pseudopotential file '/home/guoxy/vasp/jdftx-1.5.0/build/pseudopotentials/GBRV/li_pbe.uspp':
  Title: Li.  Created by USPP 7.3.6 on 8-4-15
  Reference state energy: -7.100502.  3 valence electrons in orbitals:
    |100>  occupation: 2  eigenvalue: -2.033252
    |200>  occupation: 0.55  eigenvalue: -0.187138
    |210>  occupation: 0  eigenvalue: -0.114272
  lMax: 1  lLocal: 2  QijEcut: 6
  5 projectors sampled on a log grid with 541 points:
    l: 0  eig: -2.033252  rCut: 1.3
    l: 0  eig: -0.187138  rCut: 1.3
    l: 0  eig: 1.000000  rCut: 1.3
    l: 1  eig: -0.114273  rCut: 2.001
    l: 1  eig: 1.000000  rCut: 2.001
  Transforming local potential to a uniform radial grid of dG=0.02 with 1248 points.
  Transforming nonlocal projectors to a uniform radial grid of dG=0.02 with 432 points.
  Transforming density augmentations to a uniform radial grid of dG=0.02 with 1248 points.
  Transforming atomic orbitals to a uniform radial grid of dG=0.02 with 432 points.
  Core radius for overlap checks: 2.00 bohrs.

Reading pseudopotential file '/home/guoxy/vasp/jdftx-1.5.0/build/pseudopotentials/GBRV/cu_pbe.uspp':
  Title: Cu.  Created by USPP 7.3.6 on 3-2-2014
  Reference state energy: -201.059491.  19 valence electrons in orbitals:
    |300>  occupation: 2  eigenvalue: -5.020764
    |310>  occupation: 6  eigenvalue: -3.445588
    |320>  occupation: 8  eigenvalue: -0.925168
    |400>  occupation: 2  eigenvalue: -0.567638
    |410>  occupation: 0  eigenvalue: -0.326154
  lMax: 2  lLocal: 3  QijEcut: 6
  6 projectors sampled on a log grid with 613 points:
    l: 0  eig: -5.020767  rCut: 1.4
    l: 0  eig: -0.567640  rCut: 1.4
    l: 1  eig: -3.445589  rCut: 1.55
    l: 1  eig: -0.326157  rCut: 1.55
    l: 2  eig: -0.925170  rCut: 1.5
    l: 2  eig: 1.500000  rCut: 1.5
  Partial core density with radius 0.8
  Transforming core density to a uniform radial grid of dG=0.02 with 1248 points.
  Transforming local potential to a uniform radial grid of dG=0.02 with 1248 points.
  Transforming nonlocal projectors to a uniform radial grid of dG=0.02 with 432 points.
  Transforming density augmentations to a uniform radial grid of dG=0.02 with 1248 points.
  Transforming atomic orbitals to a uniform radial grid of dG=0.02 with 432 points.
  Core radius for overlap checks: 1.55 bohrs.

Reading pseudopotential file '/home/guoxy/vasp/jdftx-1.5.0/build/pseudopotentials/GBRV/f_pbe.uspp':
  Title: F.  Created by USPP 7.3.6 on 1-4-15
  Reference state energy: -24.162774.  7 valence electrons in orbitals:
    |200>  occupation: 2  eigenvalue: -1.098757
    |210>  occupation: 5  eigenvalue: -0.408350
  lMax: 1  lLocal: 2  QijEcut: 6.5
  4 projectors sampled on a log grid with 525 points:
    l: 0  eig: -1.098755  rCut: 1.3
    l: 0  eig: 0.000000  rCut: 1.3
    l: 1  eig: -0.408349  rCut: 1.4
    l: 1  eig: 0.000000  rCut: 1.4
  Transforming local potential to a uniform radial grid of dG=0.02 with 1248 points.
  Transforming nonlocal projectors to a uniform radial grid of dG=0.02 with 432 points.
  Transforming density augmentations to a uniform radial grid of dG=0.02 with 1248 points.
  Transforming atomic orbitals to a uniform radial grid of dG=0.02 with 432 points.
  Core radius for overlap checks: 1.40 bohrs.

Initialized 3 species with 54 total atoms.

Folded 1 k-points by 4x5x1 to 20 k-points.

---------- Setting up k-points, bands, fillings ----------
Adding inversion symmetry to k-mesh for non-inversion-symmetric unit cell.
Reduced to 9 k-points under symmetry. 
Computing the number of bands and number of electrons
Reading initial fillings from file NbTe2.fillings.
nElectrons: 474.000000   nBands: 336   nStates: 9

----- Setting up reduced wavefunction bases (one per k-point) -----
average nbasis = 40539.150 , ideal nbasis = 40548.720

---------- Setting up coulomb interaction ----------
Fluid mode embedding: using embedded box, but periodic Coulomb kernel.
(Fluid response is responsible for (approximate) separation between periodic images.)
Setting up double-sized grid for truncated Coulomb potentials:
R = 
[    15.9263          0          0  ]
[          0    13.9131          0  ]
[          0          0    85.6698  ]
unit cell volume = 18983.1
G =
[   0.394515          0          0  ]
[          0   0.451602          0  ]
[          0          0  0.0733419  ]
Chosen fftbox size, S = [  72  64  392  ]
Integer grid location selected as the embedding center:
   Grid: [  0  0  98  ]
   Lattice: [  0  0  0.5  ]
   Cartesian: [  0  0  21.4175  ]
Constructing Wigner-Seitz cell: 6 faces (6 quadrilaterals, 0 hexagons)
Range-separation parameter for embedded mesh potentials due to point charges: 0.593338 bohrs.

Initializing van der Waals corrections
	NOTE: vdW corrections apply only for interactions with fluid.
	Li:  C6:   27.93 Eh-a0^6  R0: 1.559 a0
	Cu:  C6:  187.33 Eh-a0^6  R0: 2.952 a0
	 F:  C6:   13.01 Eh-a0^6  R0: 2.432 a0

---------- Setting up ewald sum ----------
Optimum gaussian width for ewald sums = 5.473946 bohr.
Real space sum over 605 unit cells with max indices [  5  5  2  ]
Reciprocal space sum over 7293 terms with max indices [  6  5  25  ]

---------- Allocating electronic variables ----------
Initializing wave functions:  reading from 'NbTe2.wfns'
----- createFluidSolver() ----- (Fluid-side solver setup)
   Initializing fluid molecule 'H2O'
     Initializing site 'O'
       Electron density: proportional to exp(-r/0.36935)*erfc((r-0.51523)/0.36823) with norm 6.826
       Charge density: gaussian nuclear width 0.478731 with net site charge 0.826
       Polarizability: cuspless exponential with width 0.32 and norm 3.73
       Hard sphere radius: 2.57003 bohrs
       Positions in reference frame:
         [ +0.000000 +0.000000 +0.000000 ]
     Initializing site 'H'
       Electron density: proportional to exp(-r/0.34641)*erfc((r-0)/0.390882) with norm 0.587
       Charge density: gaussian nuclear width 0.377945 with net site charge -0.413
       Polarizability: cuspless exponential with width 0.39 and norm 3.3
       Positions in reference frame:
         [ +0.000000 -1.441945 +1.122523 ]
         [ +0.000000 +1.441945 +1.122523 ]
     Net charge: 0   dipole magnitude: 0.927204
     Initializing spherical shell mfKernel with radius 2.61727 Bohr
     deltaS corrections:
       site 'O': -7.54299
       site 'H': -6.83917
   Initializing fluid molecule 'Na+'
     Initializing site 'Na'
       Electron density: proportional to exp(-r/0.19682)*erfc((r-0.71491)/0.41314) with norm 8.1383
       Charge density: gaussian nuclear width 0.365347 with net site charge -1
       Hard sphere radius: 1.86327 bohrs
       Positions in reference frame:
         [ +0.000000 +0.000000 +0.000000 ]
     Net charge: -1   dipole magnitude: 0
     Initializing gaussian mfKernel with width: 1.55004 Bohr
     deltaS corrections:
       site 'Na': -22.3555
   Initializing fluid molecule 'F-'
     Initializing site 'F'
       Electron density: proportional to exp(-r/0.38886)*erfc((r-0)/0.438782) with norm 8
       Charge density: gaussian nuclear width 0.374796 with net site charge 1
       Hard sphere radius: 2.39995 bohrs
       Positions in reference frame:
         [ +0.000000 +0.000000 +0.000000 ]
     Net charge: 1   dipole magnitude: 0
     Initializing gaussian mfKernel with width: 1.59012 Bohr
     deltaS corrections:
       site 'F': -9.04335

Correction to mu due to finite nuclear width = -0.0247748
   Cavity determined by nc: 0.00142 and sigma: 0.707107
   Nonlocal vdW cavity from gaussian model electron density with norm = 8 and sigma = 0.993594 bohr
   Charge asymmetry in cavity with sensitivity pCavity = 36.5 e-bohr/Eh
   Electrostatic cavity expanded by eta = 1.46 bohrs
   Weighted density cavitation model constrained by Nbulk: 0.0049383 bohr^-3, Pvap: 3.14029 kPa, Rvdw: 2.61727 bohr and sigmaBulk: 4.62e-05 Eh/bohr^2 at T: 298 K.
   Weighted density dispersion model using vdW pair potentials with single solvent site with sqrtC6eff: 0.77 SI.
Reading fluid state from 'NbTe2.fluidState'


---- Citations for features of the code used in this run ----

   Software package:
      R. Sundararaman, K. Letchworth-Weaver, K.A. Schwarz, D. Gunceler, Y. Ozhabes and T.A. Arias, 'JDFTx: software for joint density-functional theory', SoftwareX 6, 278 (2017)

   gga-PBE exchange-correlation functional:
      J.P. Perdew, K. Burke and M. Ernzerhof, Phys. Rev. Lett. 77, 3865 (1996)

   Pseudopotentials:
      KF Garrity, JW Bennett, KM Rabe and D Vanderbilt, Comput. Mater. Sci. 81, 446 (2014)

   Truncated Coulomb potentials:
      R. Sundararaman and T.A. Arias, Phys. Rev. B 87, 165122 (2013)

   Van der Waals correction pair-potentials:
      S. Grimme, J. Comput. Chem. 27, 1787 (2006)

   Charge-asymmetric nonlocally-determined local-electric (CANDLE) solvation model:
      R. Sundararaman and W.A. Goddard III, J. Chem. Phys. 142, 064107 (2015)

   Total energy minimization with Auxiliary Hamiltonian:
      C. Freysoldt, S. Boeck, and J. Neugebauer, Phys. Rev. B 79, 241103(R) (2009)

   Grand-canonical (fixed-potential) DFT:
      R. Sundararaman, W. A. Goddard III and T. A. Arias, J. Chem. Phys. 146, 114104 (2017)

This list may not be complete. Please suggest additional citations or
report any other bugs at https://github.com/shankar1729/jdftx/issues

Initialization completed successfully at t[s]:     37.85

Shifting auxilliary hamiltonian by 0.039014 to set nElectrons=474.000000
	Linear fluid (dielectric constant: 78.4, screening length: 5.74355 Bohr) occupying 0.735293 of unit cell:	Completed after 11 iterations at t[s]:     55.83

-------- Electronic minimization -----------
	Linear fluid (dielectric constant: 78.4, screening length: 5.74355 Bohr) occupying 0.735293 of unit cell:	Completed after 0 iterations at t[s]:     74.33
	FillingsUpdate:  mu: -0.171251800  nElectrons: 474.000000
ElecMinimize: Iter:   0  G: -3158.610842696807140  |grad|_K:  5.911e-05  alpha:  1.000e+00
	Linear fluid (dielectric constant: 78.4, screening length: 5.74355 Bohr) occupying 0.773255 of unit cell:	Completed after 26 iterations at t[s]:    121.22
	Linear fluid (dielectric constant: 78.4, screening length: 5.74355 Bohr) occupying 0.771679 of unit cell:	Completed after 33 iterations at t[s]:    140.61
ElecMinimize: 	Step increased G by 3.983922e-01, reducing alpha to 1.891996e-02.
	Linear fluid (dielectric constant: 78.4, screening length: 5.74355 Bohr) occupying 0.738830 of unit cell:	Completed after 24 iterations at t[s]:    181.92
	FillingsUpdate:  mu: -0.171251800  nElectrons: 474.408469
	SubspaceRotationAdjust: set factor to 1.2
ElecMinimize: Iter:   1  G: -3158.618655094493988  |grad|_K:  1.603e-05  alpha:  1.892e-02  linmin: -2.662e-04  t[s]:    204.39
	Linear fluid (dielectric constant: 78.4, screening length: 5.74355 Bohr) occupying 0.739247 of unit cell:	Completed after 15 iterations at t[s]:    224.11
ElecMinimize: 	Predicted alpha/alphaT>3.000000, increasing alphaT to 5.675988e-02.
	Linear fluid (dielectric constant: 78.4, screening length: 5.74355 Bohr) occupying 0.740134 of unit cell:	Completed after 17 iterations at t[s]:    243.81
	Linear fluid (dielectric constant: 78.4, screening length: 5.74355 Bohr) occupying 0.742209 of unit cell:	Completed after 19 iterations at t[s]:    261.54
	FillingsUpdate:  mu: -0.171251800  nElectrons: 474.661451
	SubspaceRotationAdjust: set factor to 1.44
ElecMinimize: Iter:   2  G: -3158.623073911687698  |grad|_K:  1.298e-05  alpha:  1.365e-01  linmin: -5.867e-05  t[s]:    279.61
	Linear fluid (dielectric constant: 78.4, screening length: 5.74355 Bohr) occupying 0.745864 of unit cell:	Completed after 21 iterations at t[s]:    300.74
	Linear fluid (dielectric constant: 78.4, screening length: 5.74355 Bohr) occupying 0.748625 of unit cell:	Completed after 21 iterations at t[s]:    322.78
	FillingsUpdate:  mu: -0.171251800  nElectrons: 475.059727
	SubspaceRotationAdjust: set factor to 0.962
ElecMinimize: Iter:   3  G: -3158.628216023465484  |grad|_K:  3.074e-05  alpha:  2.430e-01  linmin: -6.071e-06  t[s]:    340.14
	Linear fluid (dielectric constant: 78.4, screening length: 5.74355 Bohr) occupying 0.743263 of unit cell:	Completed after 26 iterations at t[s]:    362.08
	Linear fluid (dielectric constant: 78.4, screening length: 5.74355 Bohr) occupying 0.749421 of unit cell:	Completed after 26 iterations at t[s]:    384.28
	FillingsUpdate:  mu: -0.171251800  nElectrons: 475.131732
	SubspaceRotationAdjust: set factor to 1.66
ElecMinimize: Iter:   4  G: -3158.632245615151987  |grad|_K:  1.634e-05  alpha:  2.472e-02  linmin: -4.101e-04  t[s]:    404.85
	Linear fluid (dielectric constant: 78.4, screening length: 5.74355 Bohr) occupying 0.749872 of unit cell:	Completed after 18 iterations at t[s]:    422.08
	Linear fluid (dielectric constant: 78.4, screening length: 5.74355 Bohr) occupying 0.750061 of unit cell:	Completed after 16 iterations at t[s]:    444.20
	FillingsUpdate:  mu: -0.171251800  nElectrons: 475.181564
	SubspaceRotationAdjust: set factor to 1.02
ElecMinimize: Iter:   5  G: -3158.633879986681677  |grad|_K:  1.353e-05  alpha:  3.602e-02  linmin:  9.107e-06  t[s]:    463.30
	Linear fluid (dielectric constant: 78.4, screening length: 5.74355 Bohr) occupying 0.751644 of unit cell:	Completed after 20 iterations at t[s]:    480.23
	Linear fluid (dielectric constant: 78.4, screening length: 5.74355 Bohr) occupying 0.752054 of unit cell:	Completed after 16 iterations at t[s]:    504.04
	FillingsUpdate:  mu: -0.171251800  nElectrons: 475.305602
	SubspaceRotationAdjust: set factor to 0.643
ElecMinimize: Iter:   6  G: -3158.634911188489696  |grad|_K:  1.228e-05  alpha:  4.578e-02  linmin: -2.481e-05  t[s]:    520.69
	Linear fluid (dielectric constant: 78.4, screening length: 5.74355 Bohr) occupying 0.750790 of unit cell:	Completed after 20 iterations at t[s]:    541.26
	Linear fluid (dielectric constant: 78.4, screening length: 5.74355 Bohr) occupying 0.751177 of unit cell:	Completed after 18 iterations at t[s]:    564.48
	FillingsUpdate:  mu: -0.171251800  nElectrons: 475.264842
	SubspaceRotationAdjust: set factor to 0.382
ElecMinimize: Iter:   7  G: -3158.635522494422730  |grad|_K:  4.527e-06  alpha:  3.227e-02  linmin:  5.628e-06  t[s]:    583.08
	Linear fluid (dielectric constant: 78.4, screening length: 5.74355 Bohr) occupying 0.751112 of unit cell:	Completed after 12 iterations at t[s]:    597.02
ElecMinimize: 	Predicted alpha/alphaT>3.000000, increasing alphaT to 9.682008e-02.
	Linear fluid (dielectric constant: 78.4, screening length: 5.74355 Bohr) occupying 0.750980 of unit cell:	Completed after 13 iterations at t[s]:    618.77
	Linear fluid (dielectric constant: 78.4, screening length: 5.74355 Bohr) occupying 0.750860 of unit cell:	Completed after 14 iterations at t[s]:    641.07
	FillingsUpdate:  mu: -0.171251800  nElectrons: 475.256107
	SubspaceRotationAdjust: set factor to 0.3
ElecMinimize: Iter:   8  G: -3158.635911634083186  |grad|_K:  6.250e-06  alpha:  1.548e-01  linmin:  1.134e-05  t[s]:    662.37
	Linear fluid (dielectric constant: 78.4, screening length: 5.74355 Bohr) occupying 0.752987 of unit cell:	Completed after 21 iterations at t[s]:    681.51
	Linear fluid (dielectric constant: 78.4, screening length: 5.74355 Bohr) occupying 0.752086 of unit cell:	Completed after 18 iterations at t[s]:    703.59
	FillingsUpdate:  mu: -0.171251800  nElectrons: 475.335549
	SubspaceRotationAdjust: set factor to 0.289
ElecMinimize: Iter:   9  G: -3158.636330218398143  |grad|_K:  3.055e-06  alpha:  8.769e-02  linmin:  2.232e-06  t[s]:    720.40
	Linear fluid (dielectric constant: 78.4, screening length: 5.74355 Bohr) occupying 0.752292 of unit cell:	Completed after 14 iterations at t[s]:    734.90
	Linear fluid (dielectric constant: 78.4, screening length: 5.74355 Bohr) occupying 0.752341 of unit cell:	Completed after 4 iterations at t[s]:    757.84
	FillingsUpdate:  mu: -0.171251800  nElectrons: 475.353955
	SubspaceRotationAdjust: set factor to 0.306
ElecMinimize: Iter:  10  G: -3158.636454708849215  |grad|_K:  2.741e-06  alpha:  1.085e-01  linmin: -4.910e-06  t[s]:    773.96
	Linear fluid (dielectric constant: 78.4, screening length: 5.74355 Bohr) occupying 0.751941 of unit cell:	Completed after 17 iterations at t[s]:    790.21
	Linear fluid (dielectric constant: 78.4, screening length: 5.74355 Bohr) occupying 0.751952 of unit cell:	Completed after 2 iterations at t[s]:    811.47
	FillingsUpdate:  mu: -0.171251800  nElectrons: 475.335300
	SubspaceRotationAdjust: set factor to 0.258
ElecMinimize: Iter:  11  G: -3158.636552396529169  |grad|_K:  1.902e-06  alpha:  1.055e-01  linmin:  4.525e-05  t[s]:    829.49
	Linear fluid (dielectric constant: 78.4, screening length: 5.74355 Bohr) occupying 0.751938 of unit cell:	Completed after 7 iterations at t[s]:    846.45
	Linear fluid (dielectric constant: 78.4, screening length: 5.74355 Bohr) occupying 0.751937 of unit cell:	Completed after 3 iterations at t[s]:    862.01
	FillingsUpdate:  mu: -0.171251800  nElectrons: 475.336456
	SubspaceRotationAdjust: set factor to 0.323
ElecMinimize: Iter:  12  G: -3158.636603597446538  |grad|_K:  1.560e-06  alpha:  1.161e-01  linmin:  1.606e-06  t[s]:    880.78
	Linear fluid (dielectric constant: 78.4, screening length: 5.74355 Bohr) occupying 0.752141 of unit cell:	Completed after 14 iterations at t[s]:    896.69
	Linear fluid (dielectric constant: 78.4, screening length: 5.74355 Bohr) occupying 0.752188 of unit cell:	Completed after 9 iterations at t[s]:    917.67
	FillingsUpdate:  mu: -0.171251800  nElectrons: 475.352537
	SubspaceRotationAdjust: set factor to 0.275
ElecMinimize: Iter:  13  G: -3158.636646325583570  |grad|_K:  1.312e-06  alpha:  1.430e-01  linmin:  1.136e-05  t[s]:    936.41
	Linear fluid (dielectric constant: 78.4, screening length: 5.74355 Bohr) occupying 0.752044 of unit cell:	Completed after 14 iterations at t[s]:    952.08
	Linear fluid (dielectric constant: 78.4, screening length: 5.74355 Bohr) occupying 0.752096 of unit cell:	Completed after 9 iterations at t[s]:    961.88
	FillingsUpdate:  mu: -0.171251800  nElectrons: 475.348100
	SubspaceRotationAdjust: set factor to 0.314
ElecMinimize: Iter:  14  G: -3158.636665697005355  |grad|_K:  8.741e-07  alpha:  9.156e-02  linmin:  7.629e-06  t[s]:    971.15
	Linear fluid (dielectric constant: 78.4, screening length: 5.74355 Bohr) occupying 0.752054 of unit cell:	Completed after 7 iterations at t[s]:    979.64
	Linear fluid (dielectric constant: 78.4, screening length: 5.74355 Bohr) occupying 0.751992 of unit cell:	Completed after 10 iterations at t[s]:    992.03
	FillingsUpdate:  mu: -0.171251800  nElectrons: 475.343057
	SubspaceRotationAdjust: set factor to 0.343
ElecMinimize: Iter:  15  G: -3158.636686574274336  |grad|_K:  9.055e-07  alpha:  2.259e-01  linmin:  3.910e-05  t[s]:   1002.59
	Linear fluid (dielectric constant: 78.4, screening length: 5.74355 Bohr) occupying 0.752139 of unit cell:	Completed after 14 iterations at t[s]:   1011.68
	Linear fluid (dielectric constant: 78.4, screening length: 5.74355 Bohr) occupying 0.752064 of unit cell:	Completed after 10 iterations at t[s]:   1021.47
	FillingsUpdate:  mu: -0.171251800  nElectrons: 475.347537
	SubspaceRotationAdjust: set factor to 0.333
ElecMinimize: Iter:  16  G: -3158.636697644551532  |grad|_K:  7.206e-07  alpha:  1.114e-01  linmin:  3.300e-06  t[s]:   1032.29
	Linear fluid (dielectric constant: 78.4, screening length: 5.74355 Bohr) occupying 0.752026 of unit cell:	Completed after 4 iterations at t[s]:   1042.75
	Linear fluid (dielectric constant: 78.4, screening length: 5.74355 Bohr) occupying 0.752024 of unit cell:	Completed after 4 iterations at t[s]:   1051.52
	FillingsUpdate:  mu: -0.171251800  nElectrons: 475.345260
	SubspaceRotationAdjust: set factor to 0.363
ElecMinimize: Iter:  17  G: -3158.636705092589636  |grad|_K:  5.821e-07  alpha:  1.174e-01  linmin:  1.275e-05  t[s]:   1060.36
	Linear fluid (dielectric constant: 78.4, screening length: 5.74355 Bohr) occupying 0.752051 of unit cell:	Completed after 5 iterations at t[s]:   1068.20
	Linear fluid (dielectric constant: 78.4, screening length: 5.74355 Bohr) occupying 0.752061 of unit cell:	Completed after 4 iterations at t[s]:   1077.79
	FillingsUpdate:  mu: -0.171251800  nElectrons: 475.347136
	SubspaceRotationAdjust: set factor to 0.387
ElecMinimize: Iter:  18  G: -3158.636711670400018  |grad|_K:  5.412e-07  alpha:  1.602e-01  linmin:  1.038e-05  t[s]:   1088.11
	Linear fluid (dielectric constant: 78.4, screening length: 5.74355 Bohr) occupying 0.752055 of unit cell:	Completed after 8 iterations at t[s]:   1096.82
	Linear fluid (dielectric constant: 78.4, screening length: 5.74355 Bohr) occupying 0.752055 of unit cell:	Completed after 2 iterations at t[s]:   1105.38
	FillingsUpdate:  mu: -0.171251800  nElectrons: 475.346373
	SubspaceRotationAdjust: set factor to 0.428
ElecMinimize: Iter:  19  G: -3158.636716683601207  |grad|_K:  5.042e-07  alpha:  1.413e-01  linmin: -3.990e-06  t[s]:   1115.06
	Linear fluid (dielectric constant: 78.4, screening length: 5.74355 Bohr) occupying 0.751887 of unit cell:	Completed after 14 iterations at t[s]:   1125.89
	Linear fluid (dielectric constant: 78.4, screening length: 5.74355 Bohr) occupying 0.751939 of unit cell:	Completed after 6 iterations at t[s]:   1136.51
	FillingsUpdate:  mu: -0.171251800  nElectrons: 475.339375
	SubspaceRotationAdjust: set factor to 0.339
ElecMinimize: Iter:  20  G: -3158.636719770185209  |grad|_K:  4.491e-07  alpha:  9.750e-02  linmin:  1.292e-05  t[s]:   1145.94
	Linear fluid (dielectric constant: 78.4, screening length: 5.74355 Bohr) occupying 0.751942 of unit cell:	Completed after 4 iterations at t[s]:   1153.36
	Linear fluid (dielectric constant: 78.4, screening length: 5.74355 Bohr) occupying 0.751942 of unit cell:	Completed after 3 iterations at t[s]:   1163.61
	FillingsUpdate:  mu: -0.171251800  nElectrons: 475.338989
	SubspaceRotationAdjust: set factor to 0.38
ElecMinimize: Iter:  21  G: -3158.636722631792509  |grad|_K:  3.374e-07  alpha:  1.183e-01  linmin:  3.140e-06  t[s]:   1174.28
	Linear fluid (dielectric constant: 78.4, screening length: 5.74355 Bohr) occupying 0.751952 of unit cell:	Completed after 7 iterations at t[s]:   1184.32
	Linear fluid (dielectric constant: 78.4, screening length: 5.74355 Bohr) occupying 0.751955 of unit cell:	Completed after 2 iterations at t[s]:   1192.91
	FillingsUpdate:  mu: -0.171251800  nElectrons: 475.339124
	SubspaceRotationAdjust: set factor to 0.378
ElecMinimize: Iter:  22  G: -3158.636724787331787  |grad|_K:  2.779e-07  alpha:  1.531e-01  linmin: -2.139e-05  t[s]:   1201.87
	Linear fluid (dielectric constant: 78.4, screening length: 5.74355 Bohr) occupying 0.751905 of unit cell:	Completed after 6 iterations at t[s]:   1211.10
	Linear fluid (dielectric constant: 78.4, screening length: 5.74355 Bohr) occupying 0.751917 of unit cell:	Completed after 3 iterations at t[s]:   1220.82
	FillingsUpdate:  mu: -0.171251800  nElectrons: 475.336541
	SubspaceRotationAdjust: set factor to 0.344
ElecMinimize: Iter:  23  G: -3158.636725960326203  |grad|_K:  2.464e-07  alpha:  1.182e-01  linmin:  3.441e-06  t[s]:   1231.14
	Linear fluid (dielectric constant: 78.4, screening length: 5.74355 Bohr) occupying 0.751907 of unit cell:	Completed after 3 iterations at t[s]:   1239.20
	Linear fluid (dielectric constant: 78.4, screening length: 5.74355 Bohr) occupying 0.751907 of unit cell:	Completed after 0 iterations at t[s]:   1247.70
	FillingsUpdate:  mu: -0.171251800  nElectrons: 475.335520
	SubspaceRotationAdjust: set factor to 0.349
ElecMinimize: Iter:  24  G: -3158.636726917028227  |grad|_K:  1.964e-07  alpha:  1.290e-01  linmin: -1.082e-05  t[s]:   1257.06
	Linear fluid (dielectric constant: 78.4, screening length: 5.74355 Bohr) occupying 0.751884 of unit cell:	Completed after 3 iterations at t[s]:   1264.59
	Linear fluid (dielectric constant: 78.4, screening length: 5.74355 Bohr) occupying 0.751882 of unit cell:	Completed after 0 iterations at t[s]:   1273.17
	FillingsUpdate:  mu: -0.171251800  nElectrons: 475.333721
	SubspaceRotationAdjust: set factor to 0.365
ElecMinimize: Iter:  25  G: -3158.636727617298675  |grad|_K:  1.739e-07  alpha:  1.414e-01  linmin: -7.660e-06  t[s]:   1282.38
	Linear fluid (dielectric constant: 78.4, screening length: 5.74355 Bohr) occupying 0.751849 of unit cell:	Completed after 4 iterations at t[s]:   1289.66
	Linear fluid (dielectric constant: 78.4, screening length: 5.74355 Bohr) occupying 0.751858 of unit cell:	Completed after 2 iterations at t[s]:   1297.77
	FillingsUpdate:  mu: -0.171251800  nElectrons: 475.332127
	SubspaceRotationAdjust: set factor to 0.338
ElecMinimize: Iter:  26  G: -3158.636727995780348  |grad|_K:  1.473e-07  alpha:  1.015e-01  linmin: -6.213e-07  t[s]:   1306.74
	Linear fluid (dielectric constant: 78.4, screening length: 5.74355 Bohr) occupying 0.751872 of unit cell:	Completed after 3 iterations at t[s]:   1314.80
	Linear fluid (dielectric constant: 78.4, screening length: 5.74355 Bohr) occupying 0.751872 of unit cell:	Completed after 0 iterations at t[s]:   1324.92
	FillingsUpdate:  mu: -0.171251800  nElectrons: 475.332702
	SubspaceRotationAdjust: set factor to 0.378
ElecMinimize: Iter:  27  G: -3158.636728266019418  |grad|_K:  1.103e-07  alpha:  1.010e-01  linmin:  1.257e-06  t[s]:   1335.28
	Linear fluid (dielectric constant: 78.4, screening length: 5.74355 Bohr) occupying 0.751883 of unit cell:	Completed after 2 iterations at t[s]:   1343.12
	Linear fluid (dielectric constant: 78.4, screening length: 5.74355 Bohr) occupying 0.751885 of unit cell:	Completed after 0 iterations at t[s]:   1351.40
	FillingsUpdate:  mu: -0.171251800  nElectrons: 475.333262
	SubspaceRotationAdjust: set factor to 0.365
ElecMinimize: Iter:  28  G: -3158.636728437960301  |grad|_K:  1.042e-07  alpha:  1.144e-01  linmin: -1.183e-05  t[s]:   1360.30
	Linear fluid (dielectric constant: 78.4, screening length: 5.74355 Bohr) occupying 0.751875 of unit cell:	Completed after 3 iterations at t[s]:   1368.36
	Linear fluid (dielectric constant: 78.4, screening length: 5.74355 Bohr) occupying 0.751874 of unit cell:	Completed after 0 iterations at t[s]:   1378.59
	FillingsUpdate:  mu: -0.171251800  nElectrons: 475.332508
	SubspaceRotationAdjust: set factor to 0.442
ElecMinimize: Iter:  29  G: -3158.636728604721156  |grad|_K:  8.821e-08  alpha:  1.156e-01  linmin: -4.277e-06  t[s]:   1389.18
	Linear fluid (dielectric constant: 78.4, screening length: 5.74355 Bohr) occupying 0.751863 of unit cell:	Completed after 3 iterations at t[s]:   1396.86
	Linear fluid (dielectric constant: 78.4, screening length: 5.74355 Bohr) occupying 0.751865 of unit cell:	Completed after 0 iterations at t[s]:   1405.43
	FillingsUpdate:  mu: -0.171251800  nElectrons: 475.331900
	SubspaceRotationAdjust: set factor to 0.395
ElecMinimize: Iter:  30  G: -3158.636728698196748  |grad|_K:  9.237e-08  alpha:  8.994e-02  linmin:  1.393e-05  t[s]:   1415.01
	Linear fluid (dielectric constant: 78.4, screening length: 5.74355 Bohr) occupying 0.751867 of unit cell:	Completed after 2 iterations at t[s]:   1423.02
	Linear fluid (dielectric constant: 78.4, screening length: 5.74355 Bohr) occupying 0.751867 of unit cell:	Completed after 0 iterations at t[s]:   1433.14
	FillingsUpdate:  mu: -0.171251800  nElectrons: 475.331895
	SubspaceRotationAdjust: set factor to 0.431
ElecMinimize: Iter:  31  G: -3158.636728747303096  |grad|_K:  6.244e-08  alpha:  6.041e-02  linmin:  3.219e-06  t[s]:   1443.03
	Linear fluid (dielectric constant: 78.4, screening length: 5.74355 Bohr) occupying 0.751863 of unit cell:	Completed after 0 iterations at t[s]:   1449.57
ElecMinimize: 	Predicted alpha/alphaT>3.000000, increasing alphaT to 1.812381e-01.
	Linear fluid (dielectric constant: 78.4, screening length: 5.74355 Bohr) occupying 0.751856 of unit cell:	Completed after 3 iterations at t[s]:   1458.14
	Linear fluid (dielectric constant: 78.4, screening length: 5.74355 Bohr) occupying 0.751860 of unit cell:	Completed after 1 iterations at t[s]:   1467.01
	FillingsUpdate:  mu: -0.171251800  nElectrons: 475.331490
	SubspaceRotationAdjust: set factor to 0.379
ElecMinimize: Iter:  32  G: -3158.636728794551800  |grad|_K:  7.514e-08  alpha:  1.008e-01  linmin:  1.174e-05  t[s]:   1477.12
	Linear fluid (dielectric constant: 78.4, screening length: 5.74355 Bohr) occupying 0.751864 of unit cell:	Completed after 2 iterations at t[s]:   1486.30
	Linear fluid (dielectric constant: 78.4, screening length: 5.74355 Bohr) occupying 0.751863 of unit cell:	Completed after 0 iterations at t[s]:   1494.94
	FillingsUpdate:  mu: -0.171251800  nElectrons: 475.331554
	SubspaceRotationAdjust: set factor to 0.472
ElecMinimize: Iter:  33  G: -3158.636728831470009  |grad|_K:  4.617e-08  alpha:  7.059e-02  linmin: -1.080e-06  t[s]:   1503.39
	Linear fluid (dielectric constant: 78.4, screening length: 5.74355 Bohr) occupying 0.751866 of unit cell:	Completed after 0 iterations at t[s]:   1510.33
	Linear fluid (dielectric constant: 78.4, screening length: 5.74355 Bohr) occupying 0.751872 of unit cell:	Completed after 1 iterations at t[s]:   1519.66
	FillingsUpdate:  mu: -0.171251800  nElectrons: 475.332041
	SubspaceRotationAdjust: set factor to 0.512
ElecMinimize: Iter:  34  G: -3158.636728871703781  |grad|_K:  4.558e-08  alpha:  2.038e-01  linmin:  1.021e-05  t[s]:   1529.70
	Linear fluid (dielectric constant: 78.4, screening length: 5.74355 Bohr) occupying 0.751883 of unit cell:	Completed after 2 iterations at t[s]:   1538.01
	Linear fluid (dielectric constant: 78.4, screening length: 5.74355 Bohr) occupying 0.751876 of unit cell:	Completed after 0 iterations at t[s]:   1546.94
	FillingsUpdate:  mu: -0.171251800  nElectrons: 475.332275
	SubspaceRotationAdjust: set factor to 0.368
ElecMinimize: Iter:  35  G: -3158.636728886321634  |grad|_K:  6.564e-08  alpha:  8.474e-02  linmin:  8.243e-06  t[s]:   1556.45
	Linear fluid (dielectric constant: 78.4, screening length: 5.74355 Bohr) occupying 0.751866 of unit cell:	Completed after 3 iterations at t[s]:   1565.07
	Linear fluid (dielectric constant: 78.4, screening length: 5.74355 Bohr) occupying 0.751873 of unit cell:	Completed after 0 iterations at t[s]:   1574.93
	FillingsUpdate:  mu: -0.171251800  nElectrons: 475.332075
	SubspaceRotationAdjust: set factor to 0.219
ElecMinimize: Iter:  36  G: -3158.636728902275081  |grad|_K:  6.303e-08  alpha:  2.710e-02  linmin:  1.423e-05  t[s]:   1585.11
	Linear fluid (dielectric constant: 78.4, screening length: 5.74355 Bohr) occupying 0.751874 of unit cell:	Completed after 0 iterations at t[s]:   1592.25
	Linear fluid (dielectric constant: 78.4, screening length: 5.74355 Bohr) occupying 0.751874 of unit cell:	Completed after 0 iterations at t[s]:   1600.57
	FillingsUpdate:  mu: -0.171251800  nElectrons: 475.332133
	SubspaceRotationAdjust: set factor to 0.343
ElecMinimize: Iter:  37  G: -3158.636728910022157  |grad|_K:  5.995e-08  alpha:  3.371e-02  linmin: -5.049e-08  t[s]:   1610.30
	Linear fluid (dielectric constant: 78.4, screening length: 5.74355 Bohr) occupying 0.751878 of unit cell:	Completed after 2 iterations at t[s]:   1619.11
	Linear fluid (dielectric constant: 78.4, screening length: 5.74355 Bohr) occupying 0.751875 of unit cell:	Completed after 0 iterations at t[s]:   1629.92
ElecMinimize: 	Step increased G by 1.968283e-08, reducing alpha to 8.434122e-04.
	Linear fluid (dielectric constant: 78.4, screening length: 5.74355 Bohr) occupying 0.751874 of unit cell:	Completed after 0 iterations at t[s]:   1645.72
ElecMinimize: 	Step increased G by 1.697890e-08, reducing alpha to 8.434122e-05.
	Linear fluid (dielectric constant: 78.4, screening length: 5.74355 Bohr) occupying 0.751874 of unit cell:	Completed after 0 iterations at t[s]:   1659.93
ElecMinimize: 	Step increased G by 1.677745e-08, reducing alpha to 8.434122e-06.
ElecMinimize: 	Step failed to reduce G after 3 attempts. Quitting step.
ElecMinimize: 	Undoing step.
	Linear fluid (dielectric constant: 78.4, screening length: 5.74355 Bohr) occupying 0.751874 of unit cell:	Completed after 0 iterations at t[s]:   1676.79
ElecMinimize: 	Step failed: resetting search direction.
	FillingsUpdate:  mu: -0.171251800  nElectrons: 475.332134
	SubspaceRotationAdjust: set factor to 0.253
ElecMinimize: Iter:  38  G: -3158.636728893208328  |grad|_K:  5.259e-08  alpha:  8.434e-06
	Linear fluid (dielectric constant: 78.4, screening length: 5.74355 Bohr) occupying 0.751870 of unit cell:	Completed after 1 iterations at t[s]:   1692.52
	Linear fluid (dielectric constant: 78.4, screening length: 5.74355 Bohr) occupying 0.751871 of unit cell:	Completed after 0 iterations at t[s]:   1701.49
	FillingsUpdate:  mu: -0.171251800  nElectrons: 475.331936
	SubspaceRotationAdjust: set factor to 0.419
ElecMinimize: Iter:  39  G: -3158.636728900035905  |grad|_K:  2.935e-08  alpha:  2.753e-02  linmin: -2.427e-04  t[s]:   1712.56
	Linear fluid (dielectric constant: 78.4, screening length: 5.74355 Bohr) occupying 0.751869 of unit cell:	Completed after 0 iterations at t[s]:   1720.40
ElecMinimize: 	Predicted alpha/alphaT>3.000000, increasing alphaT to 8.260083e-02.
	Linear fluid (dielectric constant: 78.4, screening length: 5.74355 Bohr) occupying 0.751865 of unit cell:	Completed after 0 iterations at t[s]:   1728.83
	Linear fluid (dielectric constant: 78.4, screening length: 5.74355 Bohr) occupying 0.751860 of unit cell:	Completed after 1 iterations at t[s]:   1736.72
ElecMinimize: 	Step increased G by 1.544095e-08, reducing alpha to 1.521841e-02.
	Linear fluid (dielectric constant: 78.4, screening length: 5.74355 Bohr) occupying 0.751870 of unit cell:	Completed after 1 iterations at t[s]:   1753.88
	FillingsUpdate:  mu: -0.171251800  nElectrons: 475.331875
	SubspaceRotationAdjust: set factor to 0.381
ElecMinimize: Iter:  40  G: -3158.636728906536973  |grad|_K:  5.171e-08  alpha:  1.522e-02  linmin: -1.005e-05  t[s]:   1764.67
ElecMinimize: Converged (|Delta G|<1.000000e-08 for 2 iters).
Setting wave functions to eigenvectors of Hamiltonian

# Ionic positions in lattice coordinates:
ion Li   0.250000000000000   0.138480627676396   0.519765368209435 0
ion Li   0.583333333333333   0.138480627676396   0.519765368209435 0
ion Li   0.916666666666667   0.138480627676396   0.519765368209435 0
ion Li   0.250000000000000   0.849344287261574   0.607762461400828 0
ion Li   0.583333333333333   0.849344287261574   0.607762461400828 0
ion Li   0.916666666666667   0.849344287261574   0.607762461400828 0
ion Li   0.083333333333333   0.150636998543358   0.392231643806340 0
ion Li   0.416666666666667   0.150636998543358   0.392231643806340 0
ion Li   0.750000000000000   0.150636998543358   0.392231643806340 0
ion Li   0.083333333333333   0.861554631968501   0.480251796675669 0
ion Li   0.416666666666667   0.861554631968501   0.480251796675669 0
ion Li   0.750000000000000   0.861554631968501   0.480251796675669 0
ion Cu   0.083333333333333   0.501962207303776   0.566636796979411 0
ion Cu   0.416666666666667   0.501962207303776   0.566636796979411 0
ion Cu   0.750000000000000   0.501962207303776   0.566636796979411 0
ion Cu   0.083333333333333   0.169576818453279   0.658851103381099 0
ion Cu   0.416666666666667   0.169576818453279   0.658851103381099 0
ion Cu   0.750000000000000   0.169576818453279   0.658851103381099 0
ion Cu   0.250000000000000   0.830369691327466   0.341107779664638 0
ion Cu   0.583333333333333   0.830369691327466   0.341107779664638 0
ion Cu   0.916666666666667   0.830369691327466   0.341107779664638 0
ion Cu   0.250000000000000   0.498082374255930   0.433392104743641 0
ion Cu   0.583333333333333   0.498082374255930   0.433392104743641 0
ion Cu   0.916666666666667   0.498082374255930   0.433392104743641 0
ion F   0.083333333333333   0.319346120368948   0.507616456699274 0
ion F   0.416666666666667   0.319346120368948   0.507616456699274 0
ion F   0.750000000000000   0.319346120368948   0.507616456699274 0
ion F   0.083333333333333   0.990175753309549   0.555823732594357 0
ion F   0.416666666666667   0.990175753309549   0.555823732594357 0
ion F   0.750000000000000   0.990175753309549   0.555823732594357 0
ion F   0.083333333333333   0.689737103450906   0.620225388441136 0
ion F   0.416666666666667   0.689737103450906   0.620225388441136 0
ion F   0.750000000000000   0.689737103450906   0.620225388441136 0
ion F   0.250000000000000   0.330528927901049   0.627940784217324 0
ion F   0.583333333333333   0.330528927901049   0.627940784217324 0
ion F   0.916666666666667   0.330528927901049   0.627940784217324 0
ion F   0.250000000000000  -0.000307335671843   0.679208439746356 0
ion F   0.583333333333333  -0.000307335671843   0.679208439746356 0
ion F   0.916666666666667  -0.000307335671843   0.679208439746356 0
ion F   0.083333333333333   1.000233200258994   0.320743502879832 0
ion F   0.416666666666667   1.000233200258994   0.320743502879832 0
ion F   0.750000000000000   1.000233200258994   0.320743502879832 0
ion F   0.083333333333333   0.669457052666533   0.372028174053647 0
ion F   0.416666666666667   0.669457052666533   0.372028174053647 0
ion F   0.750000000000000   0.669457052666533   0.372028174053647 0
ion F   0.250000000000000   0.310300048619681   0.379814583187908 0
ion F   0.583333333333333   0.310300048619681   0.379814583187908 0
ion F   0.916666666666667   0.310300048619681   0.379814583187908 0
ion F   0.250000000000000   0.009826392736341   0.444185391087150 0
ion F   0.583333333333333   0.009826392736341   0.444185391087150 0
ion F   0.916666666666667   0.009826392736341   0.444185391087150 0
ion F   0.250000000000000   0.680695099569561   0.492414492231969 0
ion F   0.583333333333333   0.680695099569561   0.492414492231969 0
ion F   0.916666666666667   0.680695099569561   0.492414492231969 0


# Forces in Lattice coordinates:
force Li  -0.000000000000000   0.035949446085526   0.032337321064310 0
force Li   0.000000000000000   0.035949446085526   0.032337321064310 0
force Li   0.000000000000000   0.035949446085529   0.032337321064310 0
force Li   0.000000000000000   0.047634622194809  -0.168036205761601 0
force Li   0.000000000000000   0.047634622194809  -0.168036205761601 0
force Li   0.000000000000000   0.047634622194810  -0.168036205761601 0
force Li  -0.000000000000000  -0.047495423234232   0.168503634817079 0
force Li  -0.000000000000000  -0.047495423234232   0.168503634817079 0
force Li  -0.000000000000000  -0.047495423234232   0.168503634817079 0
force Li   0.000000000000000  -0.035909621635779  -0.032807624503885 0
force Li   0.000000000000000  -0.035909621635779  -0.032807624503899 0
force Li   0.000000000000000  -0.035909621635772  -0.032807624503899 0
force Cu   0.000000000000000  -0.064051789359316  -0.283355497449063 0
force Cu   0.000000000000000  -0.064051789359330  -0.283355497449062 0
force Cu   0.000000000000000  -0.064051789359316  -0.283355497449063 0
force Cu  -0.000000000000000   0.064653650466052  -0.042128806504090 0
force Cu   0.000000000000000   0.064653650466055  -0.042128806505000 0
force Cu   0.000000000000000   0.064653650466048  -0.042128806504090 0
force Cu   0.000000000000000  -0.064812143585637   0.042184635625462 0
force Cu   0.000000000000000  -0.064812143585630   0.042184635623643 0
force Cu  -0.000000000000000  -0.064812143585630   0.042184635625462 0
force Cu   0.000000000000000   0.064438161232180   0.283526132629329 0
force Cu   0.000000000000000   0.064438161232180   0.283526132629329 0
force Cu   0.000000000000000   0.064438161232180   0.283526132629329 0
force F   0.000000000000000  -0.026130084339120  -0.011250380994758 0
force F   0.000000000000000  -0.026130084339134  -0.011250380994758 0
force F  -0.000000000000000  -0.026130084339134  -0.011250380994751 0
force F  -0.000000000000000  -0.028724353876673   0.034424400311904 0
force F  -0.000000000000000  -0.028724353876669   0.034424400311904 0
force F   0.000000000000000  -0.028724353876669   0.034424400311904 0
force F   0.000000000000000   0.058417627400131   0.415798477760291 0
force F  -0.000000000000000   0.058417627400130   0.415798477760291 0
force F  -0.000000000000000   0.058417627400130   0.415798477760291 0
force F   0.000000000000000   0.067800810405483   0.018609752322343 0
force F  -0.000000000000000   0.067800810405483   0.018609752322115 0
force F   0.000000000000000   0.067800810405483   0.018609752322115 0
force F   0.000000000000000  -0.184313749419163   0.238218472078671 0
force F  -0.000000000000000  -0.184313749419191   0.238218472079126 0
force F   0.000000000000000  -0.184313749419163   0.238218472079128 0
force F  -0.000000000000000   0.184576512197620  -0.236507688602121 0
force F   0.000000000000000   0.184576512197648  -0.236507688601664 0
force F   0.000000000000000   0.184576512197648  -0.236507688602117 0
force F  -0.000000000000000  -0.067777707194823  -0.018215330938529 0
force F   0.000000000000000  -0.067777707194823  -0.018215330938983 0
force F  -0.000000000000000  -0.067777707194823  -0.018215330938983 0
force F   0.000000000000000  -0.059141378868286  -0.416942202031944 0
force F   0.000000000000000  -0.059141378868271  -0.416942202031944 0
force F  -0.000000000000000  -0.059141378868286  -0.416942202031944 0
force F   0.000000000000000   0.028677869309559  -0.035058906698411 0
force F   0.000000000000000   0.028677869309562  -0.035058906698411 0
force F   0.000000000000000   0.028677869309566  -0.035058906698298 0
force F   0.000000000000000   0.026314952370510   0.011600630267457 0
force F   0.000000000000000   0.026314952370524   0.011600630267459 0
force F   0.000000000000000   0.026314952370524   0.011600630267459 0

# Energy components:
   A_diel =       -0.2805063957908738
   Eewald =    27541.2321654188854154
       EH =    30575.1372677341350936
     Eloc =   -62022.9147915748471860
      Enl =      524.5586672655883831
      Exc =     -395.2070376939481662
 Exc_core =        0.5636536903986782
       KE =      536.9598327219998737
  MuShift =       -0.0329969141465132
-------------------------------------
     Etot =    -3239.9837457477206044
       TS =        0.0544223878771542
-------------------------------------
        F =    -3240.0381681355979708
      muN =      -81.4014392290609408
-------------------------------------
        G =    -3158.6367289065369732

IonicMinimize: Iter:   0  G: -3158.636728906536973  |grad|_K:  0.000e+00  t[s]:   1771.95
IonicMinimize: Converged (|grad|_K<1.000000e-04).

#--- Lowdin population analysis ---
# oxidation-state Li +0.186 +0.186 +0.186 +0.186 +0.186 +0.186 +0.187 +0.187 +0.187 +0.186 +0.186 +0.186
# oxidation-state Cu +0.499 +0.499 +0.499 +0.548 +0.548 +0.548 +0.548 +0.548 +0.548 +0.499 +0.499 +0.499
# oxidation-state F -0.242 -0.242 -0.242 -0.308 -0.308 -0.308 -0.295 -0.295 -0.295 -0.241 -0.241 -0.241 -0.287 -0.287 -0.287 -0.287 -0.287 -0.287 -0.241 -0.241 -0.241 -0.295 -0.295 -0.295 -0.308 -0.308 -0.308 -0.242 -0.242 -0.242


Dumping 'NbTe2.fillings' ... done
Dumping 'NbTe2.wfns' ... done
Dumping 'NbTe2.fluidState' ... done
Dumping 'NbTe2.eigenvals' ... done
End date and time: Fri Jul 17 23:20:55 2020  (Duration: 0-0:29:36.39)
Done!
