
*************** JDFTx 1.5.0  ***************

Start date and time: Sat Jul  4 06:50:47 2020
Executable jdftx_gpu with command-line: -i Charged.in -o Charged.out
Running on hosts (process indices):  amax (0)
Divided in process groups (process indices):  0 (0)
gpuInit: Found compatible cuda device 0 'Tesla K80'
gpuInit: Selected device 0
Resource initialization completed at t[s]:      5.95
Run totals: 1 processes, 24 threads, 1 GPUs


Input parsed successfully to the following command list (including defaults):

basis kpoint-dependent
cache-projectors no
coords-type Lattice
core-overlap-check none
coulomb-interaction Slab 001
coulomb-truncation-embed 0 0 0.5
davidson-band-ratio 1.1
dump End State
dump-name NbTe2.$VAR
elec-cutoff 20 100
elec-eigen-algo Davidson
elec-ex-corr gga-PBE
elec-smearing Gauss 0.0073499
electronic-minimize  \
	dirUpdateScheme      FletcherReeves \
	linminMethod         DirUpdateRecommended \
	nIterations          100 \
	history              15 \
	knormThreshold       0 \
	energyDiffThreshold  1e-08 \
	nEnergyDiff          2 \
	alphaTstart          1 \
	alphaTmin            1e-10 \
	updateTestStepSize   yes \
	alphaTreduceFactor   0.1 \
	alphaTincreaseFactor 3 \
	nAlphaAdjustMax      3 \
	wolfeEnergy          0.0001 \
	wolfeGradient        0.9 \
	fdTest               no
electronic-scf  \
	nIterations	500 \
	energyDiffThreshold	1e-08 \
	residualThreshold	1e-07 \
	mixFraction	0.5 \
	qMetric	0.8 \
	history	10 \
	nEigSteps	2 \
	eigDiffThreshold	1e-08 \
	mixedVariable	Density \
	qKerker	0.8 \
	qKappa	-1 \
	verbose	no \
	mixFractionMag	1.5
exchange-regularization WignerSeitzTruncated
fluid LinearPCM 298.000000 1.013250
fluid-anion F- 1 MeanFieldLJ \
	epsBulk 1 \
	pMol 0 \
	epsInf 1 \
	Pvap 0 \
	sigmaBulk 0 \
	Rvdw 2.24877 \
	Res 0 \
	tauNuc 343133
fluid-cation Na+ 1 MeanFieldLJ \
	epsBulk 1 \
	pMol 0 \
	epsInf 1 \
	Pvap 0 \
	sigmaBulk 0 \
	Rvdw 2.19208 \
	Res 0 \
	tauNuc 343133
fluid-ex-corr lda-TF lda-PZ
fluid-gummel-loop 10 1.000000e-05
fluid-minimize  \
	dirUpdateScheme      PolakRibiere \
	linminMethod         DirUpdateRecommended \
	nIterations          400 \
	history              15 \
	knormThreshold       1e-11 \
	energyDiffThreshold  0 \
	nEnergyDiff          2 \
	alphaTstart          1 \
	alphaTmin            1e-10 \
	updateTestStepSize   yes \
	alphaTreduceFactor   0.1 \
	alphaTincreaseFactor 3 \
	nAlphaAdjustMax      6 \
	wolfeEnergy          0.0001 \
	wolfeGradient        0.9 \
	fdTest               no
fluid-solvent H2O 55.338 ScalarEOS \
	epsBulk 78.4 \
	pMol 0.92466 \
	epsInf 1.77 \
	Pvap 1.06736e-10 \
	sigmaBulk 4.62e-05 \
	Rvdw 2.61727 \
	Res 1.42 \
	tauNuc 343133 \
	poleEl 15 7 1
forces-output-coords Positions
initial-state NbTe2.$VAR
ion Ni   0.000000000000000   0.000000000000000   0.500000000000000 0
ion Ni   0.333330001000000   0.000000000000000   0.500000000000000 0
ion Ni   0.666670021000002   0.000000000000000   0.500000000000000 0
ion Ni   0.999999998000000   0.333329996000003   0.500000000000000 0
ion Ni   0.333329998000004   0.333329996000003   0.500000000000000 0
ion Ni   0.666670007000000   0.333329996000003   0.500000000000000 0
ion Ni   0.000000004000000   0.666670027999999   0.500000000000000 0
ion Ni   0.333330005000000   0.666670027999999   0.500000000000000 0
ion Ni   0.666670023999998   0.666670027999999   0.500000000000000 0
ion Te   0.111109999000000   0.222219997000003   0.419785856793468 0
ion Te   0.222220000000000   0.111109999000000   0.580214170206537 0
ion Te   0.444439998999996   0.222219997000003   0.419785856793468 0
ion Te   0.555560008999997   0.111109999000000   0.580214170206537 0
ion Te   0.777779975999998   0.222219997000003   0.419785856793468 0
ion Te   0.888890031000003   0.111109999000000   0.580214170206537 0
ion Te   0.111110003000000   0.555560004999997   0.419785856793468 0
ion Te   0.222219997000003   0.444439995000003   0.580214170206537 0
ion Te   0.444440004000000   0.555560004999997   0.419785856793468 0
ion Te   0.555559996000000   0.444439995000003   0.580214170206537 0
ion Te   0.777779959999997   0.555560004999997   0.419785856793468 0
ion Te   0.888890017999998   0.444439995000003   0.580214170206537 0
ion Te   0.111110027000002   0.888890074999999   0.419785856793468 0
ion Te   0.222220022999998   0.777780002000000   0.580214170206537 0
ion Te   0.444440028000002   0.888890074999999   0.419785856793468 0
ion Te   0.555560022000002   0.777780002000000   0.580214170206537 0
ion Te   0.777779983999999   0.888890074999999   0.419785856793468 0
ion Te   0.888890044000000   0.777780002000000   0.580214170206537 0
ion-species GBRV/$ID_pbe.uspp
ion-width Ecut
ionic-minimize  \
	dirUpdateScheme      L-BFGS \
	linminMethod         DirUpdateRecommended \
	nIterations          0 \
	history              15 \
	knormThreshold       0.0001 \
	energyDiffThreshold  1e-06 \
	nEnergyDiff          2 \
	alphaTstart          1 \
	alphaTmin            1e-10 \
	updateTestStepSize   yes \
	alphaTreduceFactor   0.1 \
	alphaTincreaseFactor 3 \
	nAlphaAdjustMax      3 \
	wolfeEnergy          0.0001 \
	wolfeGradient        0.9 \
	fdTest               no
kpoint   0.000000000000   0.000000000000   0.000000000000  1.00000000000000
kpoint-folding 3 3 1 
latt-move-scale 1 1 1
latt-scale 1 1 1 
lattice Triclinic 21.0455 21.0455 33.2495 90 90 120
lattice-minimize  \
	dirUpdateScheme      L-BFGS \
	linminMethod         DirUpdateRecommended \
	nIterations          0 \
	history              15 \
	knormThreshold       0 \
	energyDiffThreshold  1e-06 \
	nEnergyDiff          2 \
	alphaTstart          1 \
	alphaTmin            1e-10 \
	updateTestStepSize   yes \
	alphaTreduceFactor   0.1 \
	alphaTincreaseFactor 3 \
	nAlphaAdjustMax      3 \
	wolfeEnergy          0.0001 \
	wolfeGradient        0.9 \
	fdTest               no
lcao-params -1 1e-06 0.0073499
pcm-variant CANDLE
spintype no-spin
subspace-rotation-factor 1 yes
symmetries automatic
symmetry-threshold 0.0001
target-mu -0.171252 no




---------- Setting up symmetries ----------

Found 24 point-group symmetries of the bravais lattice
Found 108 space-group symmetries with basis
Applied RMS atom displacement 8.76442e-05 bohrs to make symmetries exact.

---------- Initializing the Grid ----------
R = 
[    21.0455   -10.5228          0  ]
[          0    18.2259          0  ]
[          0          0    33.2495  ]
unit cell volume = 12753.7
G =
[   0.298552   0.172369         -0  ]
[          0   0.344739          0  ]
[          0         -0   0.188971  ]
Minimum fftbox size, Smin = [  96  96  152  ]
Chosen fftbox size, S = [  96  96  160  ]

---------- Initializing tighter grid for wavefunction operations ----------
R = 
[    21.0455   -10.5228          0  ]
[          0    18.2259          0  ]
[          0          0    33.2495  ]
unit cell volume = 12753.7
G =
[   0.298552   0.172369         -0  ]
[          0   0.344739          0  ]
[          0         -0   0.188971  ]
Minimum fftbox size, Smin = [  88  88  136  ]
Chosen fftbox size, S = [  90  90  140  ]

---------- Exchange Correlation functional ----------
Initalized PBE GGA exchange.
Initalized PBE GGA correlation.

---------- Setting up pseudopotentials ----------
Width of ionic core gaussian charges (only for fluid interactions / plotting) set to 0.397384

Reading pseudopotential file '/home/guoxy/vasp/jdftx-1.5.0/build/pseudopotentials/GBRV/ni_pbe.uspp':
  Title: Ni.  Created by USPP 7.3.6 on 1-4-15
  Reference state energy: -170.398381.  18 valence electrons in orbitals:
    |300>  occupation: 2  eigenvalue: -4.804705
    |310>  occupation: 6  eigenvalue: -3.347751
    |320>  occupation: 8  eigenvalue: -1.042415
    |400>  occupation: 0  eigenvalue: -0.795539
    |410>  occupation: 0  eigenvalue: -0.551375
  lMax: 2  lLocal: 3  QijEcut: 6.5
  6 projectors sampled on a log grid with 611 points:
    l: 0  eig: -4.804708  rCut: 1.44
    l: 0  eig: -0.795541  rCut: 1.44
    l: 1  eig: -3.347753  rCut: 1.55
    l: 1  eig: 0.500000  rCut: 1.55
    l: 2  eig: -1.042418  rCut: 1.5
    l: 2  eig: -0.450000  rCut: 1.5
  Partial core density with radius 0.65
  Transforming core density to a uniform radial grid of dG=0.02 with 1626 points.
  Transforming local potential to a uniform radial grid of dG=0.02 with 1626 points.
  Transforming nonlocal projectors to a uniform radial grid of dG=0.02 with 432 points.
  Transforming density augmentations to a uniform radial grid of dG=0.02 with 1626 points.
  Transforming atomic orbitals to a uniform radial grid of dG=0.02 with 432 points.
  Core radius for overlap checks: 1.55 bohrs.

Reading pseudopotential file '/home/guoxy/vasp/jdftx-1.5.0/build/pseudopotentials/GBRV/te_pbe.uspp':
  Title: Te.  Created by USPP 7.3.6 on 14-9-2013
  Reference state energy: -13.134220.  6 valence electrons in orbitals:
    |500>  occupation: 2  eigenvalue: -0.555231
    |510>  occupation: 4  eigenvalue: -0.218781
  lMax: 2  lLocal: 2  QijEcut: 5
  5 projectors sampled on a log grid with 723 points:
    l: 0  eig: -0.555229  rCut: 2.1
    l: 0  eig: 1.000000  rCut: 2.1
    l: 1  eig: -0.218780  rCut: 2.1
    l: 1  eig: 1.000000  rCut: 2.1
    l: 2  eig: 1.000000  rCut: 2.6
  Partial core density with radius 1.8
  Transforming core density to a uniform radial grid of dG=0.02 with 1626 points.
  Transforming local potential to a uniform radial grid of dG=0.02 with 1626 points.
  Transforming nonlocal projectors to a uniform radial grid of dG=0.02 with 432 points.
  Transforming density augmentations to a uniform radial grid of dG=0.02 with 1626 points.
  Transforming atomic orbitals to a uniform radial grid of dG=0.02 with 432 points.
  Core radius for overlap checks: 2.60 bohrs.

Initialized 2 species with 27 total atoms.

Folded 1 k-points by 3x3x1 to 9 k-points.

---------- Setting up k-points, bands, fillings ----------
Reduced to 3 k-points under symmetry. 
Computing the number of bands and number of electrons
Reading initial fillings from file NbTe2.fillings.
nElectrons: 270.000000   nBands: 189   nStates: 3

----- Setting up reduced wavefunction bases (one per k-point) -----
average nbasis = 54474.111 , ideal nbasis = 54484.601

---------- Setting up coulomb interaction ----------
Fluid mode embedding: using embedded box, but periodic Coulomb kernel.
(Fluid response is responsible for (approximate) separation between periodic images.)
Setting up double-sized grid for truncated Coulomb potentials:
R = 
[    21.0455   -10.5228          0  ]
[          0    18.2259          0  ]
[          0          0    66.4991  ]
unit cell volume = 25507.3
G =
[   0.298552   0.172369         -0  ]
[          0   0.344739          0  ]
[          0         -0  0.0944853  ]
Chosen fftbox size, S = [  96  96  320  ]
Integer grid location selected as the embedding center:
   Grid: [  0  0  80  ]
   Lattice: [  0  0  0.5  ]
   Cartesian: [  0  0  16.6248  ]
Constructing Wigner-Seitz cell: 8 faces (6 quadrilaterals, 2 hexagons)
Range-separation parameter for embedded mesh potentials due to point charges: 0.590682 bohrs.

Initializing van der Waals corrections
	NOTE: vdW corrections apply only for interactions with fluid.
	Ni:  C6:  187.33 Eh-a0^6  R0: 2.952 a0
	Te:  C6:  550.54 Eh-a0^6  R0: 3.575 a0

---------- Setting up ewald sum ----------
Optimum gaussian width for ewald sums = 6.780125 bohr.
Real space sum over 605 unit cells with max indices [  5  5  2  ]
Reciprocal space sum over 5577 terms with max indices [  6  6  16  ]

---------- Allocating electronic variables ----------
Initializing wave functions:  reading from 'NbTe2.wfns'
----- createFluidSolver() ----- (Fluid-side solver setup)
   Initializing fluid molecule 'H2O'
     Initializing site 'O'
       Electron density: proportional to exp(-r/0.36935)*erfc((r-0.51523)/0.36823) with norm 6.826
       Charge density: gaussian nuclear width 0.478731 with net site charge 0.826
       Polarizability: cuspless exponential with width 0.32 and norm 3.73
       Hard sphere radius: 2.57003 bohrs
       Positions in reference frame:
         [ +0.000000 +0.000000 +0.000000 ]
     Initializing site 'H'
       Electron density: proportional to exp(-r/0.34641)*erfc((r-0)/0.390882) with norm 0.587
       Charge density: gaussian nuclear width 0.377945 with net site charge -0.413
       Polarizability: cuspless exponential with width 0.39 and norm 3.3
       Positions in reference frame:
         [ +0.000000 -1.441945 +1.122523 ]
         [ +0.000000 +1.441945 +1.122523 ]
     Net charge: 0   dipole magnitude: 0.927204
     Initializing spherical shell mfKernel with radius 2.61727 Bohr
     deltaS corrections:
       site 'O': -7.54299
       site 'H': -6.83917
   Initializing fluid molecule 'Na+'
     Initializing site 'Na'
       Electron density: proportional to exp(-r/0.19682)*erfc((r-0.71491)/0.41314) with norm 8.1383
       Charge density: gaussian nuclear width 0.365347 with net site charge -1
       Hard sphere radius: 1.86327 bohrs
       Positions in reference frame:
         [ +0.000000 +0.000000 +0.000000 ]
     Net charge: -1   dipole magnitude: 0
     Initializing gaussian mfKernel with width: 1.55004 Bohr
     deltaS corrections:
       site 'Na': -22.3555
   Initializing fluid molecule 'F-'
     Initializing site 'F'
       Electron density: proportional to exp(-r/0.38886)*erfc((r-0)/0.438782) with norm 8
       Charge density: gaussian nuclear width 0.374796 with net site charge 1
       Hard sphere radius: 2.39995 bohrs
       Positions in reference frame:
         [ +0.000000 +0.000000 +0.000000 ]
     Net charge: 1   dipole magnitude: 0
     Initializing gaussian mfKernel with width: 1.59012 Bohr
     deltaS corrections:
       site 'F': -9.04335

Correction to mu due to finite nuclear width = -0.0105026
   Cavity determined by nc: 0.00142 and sigma: 0.707107
   Nonlocal vdW cavity from gaussian model electron density with norm = 8 and sigma = 0.993594 bohr
   Charge asymmetry in cavity with sensitivity pCavity = 36.5 e-bohr/Eh
   Electrostatic cavity expanded by eta = 1.46 bohrs
   Weighted density cavitation model constrained by Nbulk: 0.0049383 bohr^-3, Pvap: 3.14029 kPa, Rvdw: 2.61727 bohr and sigmaBulk: 4.62e-05 Eh/bohr^2 at T: 298 K.
   Weighted density dispersion model using vdW pair potentials with single solvent site with sqrtC6eff: 0.77 SI.
Reading fluid state from 'NbTe2.fluidState'


---- Citations for features of the code used in this run ----

   Software package:
      R. Sundararaman, K. Letchworth-Weaver, K.A. Schwarz, D. Gunceler, Y. Ozhabes and T.A. Arias, 'JDFTx: software for joint density-functional theory', SoftwareX 6, 278 (2017)

   gga-PBE exchange-correlation functional:
      J.P. Perdew, K. Burke and M. Ernzerhof, Phys. Rev. Lett. 77, 3865 (1996)

   Pseudopotentials:
      KF Garrity, JW Bennett, KM Rabe and D Vanderbilt, Comput. Mater. Sci. 81, 446 (2014)

   Truncated Coulomb potentials:
      R. Sundararaman and T.A. Arias, Phys. Rev. B 87, 165122 (2013)

   Van der Waals correction pair-potentials:
      S. Grimme, J. Comput. Chem. 27, 1787 (2006)

   Charge-asymmetric nonlocally-determined local-electric (CANDLE) solvation model:
      R. Sundararaman and W.A. Goddard III, J. Chem. Phys. 142, 064107 (2015)

   Grand-canonical (fixed-potential) DFT:
      R. Sundararaman, W. A. Goddard III and T. A. Arias, J. Chem. Phys. 146, 114104 (2017)

This list may not be complete. Please suggest additional citations or
report any other bugs at https://github.com/shankar1729/jdftx/issues

Initialization completed successfully at t[s]:     15.79

Shifting auxilliary hamiltonian by -0.012504 to set nElectrons=270.000000
	Linear fluid (dielectric constant: 78.4, screening length: 5.74355 Bohr) occupying 0.741386 of unit cell:	Completed after 0 iterations at t[s]:     18.78

-------- Electronic minimization -----------
Will mix electronic density at each iteration.
	FillingsUpdate:  mu: -0.171251800  nElectrons: 270.000000
	Linear fluid (dielectric constant: 78.4, screening length: 5.74355 Bohr) occupying 0.741386 of unit cell:	Completed after 0 iterations at t[s]:     22.14
	FillingsUpdate:  mu: -0.171251800  nElectrons: 265.433828
	Linear fluid (dielectric constant: 78.4, screening length: 5.74355 Bohr) occupying 0.743412 of unit cell:	Completed after 15 iterations at t[s]:     37.69
SCF: Cycle:  0   G: -1643.751173878402369   dG: +5.747e-01   |Residual|: 1.703e-01   |deigs|: 1.848e-06  t[s]:     38.37
	Linear fluid (dielectric constant: 78.4, screening length: 5.74355 Bohr) occupying 0.738571 of unit cell:	Completed after 15 iterations at t[s]:     39.76
	FillingsUpdate:  mu: -0.171251800  nElectrons: 273.466309
	Linear fluid (dielectric constant: 78.4, screening length: 5.74355 Bohr) occupying 0.791794 of unit cell:	Completed after 27 iterations at t[s]:     60.57
SCF: Cycle:  1   G: -1642.978084222379039   dG: +7.731e-01   |Residual|: 7.407e-01   |deigs|: 2.837e-02  t[s]:     61.23
	Linear fluid (dielectric constant: 78.4, screening length: 5.74355 Bohr) occupying 0.738430 of unit cell:	Completed after 16 iterations at t[s]:     62.78
	FillingsUpdate:  mu: -0.171251800  nElectrons: 268.663251
	Linear fluid (dielectric constant: 78.4, screening length: 5.74355 Bohr) occupying 0.742966 of unit cell:	Completed after 13 iterations at t[s]:     84.01
SCF: Cycle:  2   G: -1644.271283300002551   dG: -1.293e+00   |Residual|: 1.321e-01   |deigs|: 2.189e-02  t[s]:     84.71
	Linear fluid (dielectric constant: 78.4, screening length: 5.74355 Bohr) occupying 0.737538 of unit cell:	Completed after 13 iterations at t[s]:     85.97
	FillingsUpdate:  mu: -0.171251800  nElectrons: 269.133142
	Linear fluid (dielectric constant: 78.4, screening length: 5.74355 Bohr) occupying 0.743015 of unit cell:	Completed after 12 iterations at t[s]:    106.86
SCF: Cycle:  3   G: -1644.323162841802286   dG: -5.188e-02   |Residual|: 2.301e-02   |deigs|: 2.708e-03  t[s]:    107.58
	Linear fluid (dielectric constant: 78.4, screening length: 5.74355 Bohr) occupying 0.736209 of unit cell:	Completed after 12 iterations at t[s]:    108.92
	FillingsUpdate:  mu: -0.171251800  nElectrons: 269.176402
	Linear fluid (dielectric constant: 78.4, screening length: 5.74355 Bohr) occupying 0.742983 of unit cell:	Completed after 13 iterations at t[s]:    129.29
SCF: Cycle:  4   G: -1644.321943959623695   dG: +1.219e-03   |Residual|: 3.393e-02   |deigs|: 5.429e-04  t[s]:    129.93
	Linear fluid (dielectric constant: 78.4, screening length: 5.74355 Bohr) occupying 0.734783 of unit cell:	Completed after 12 iterations at t[s]:    131.13
	FillingsUpdate:  mu: -0.171251800  nElectrons: 269.371407
	Linear fluid (dielectric constant: 78.4, screening length: 5.74355 Bohr) occupying 0.743053 of unit cell:	Completed after 12 iterations at t[s]:    151.95
SCF: Cycle:  5   G: -1644.327661938202255   dG: -5.718e-03   |Residual|: 7.756e-03   |deigs|: 8.309e-04  t[s]:    152.71
	Linear fluid (dielectric constant: 78.4, screening length: 5.74355 Bohr) occupying 0.734460 of unit cell:	Completed after 10 iterations at t[s]:    153.89
	FillingsUpdate:  mu: -0.171251800  nElectrons: 269.402834
	Linear fluid (dielectric constant: 78.4, screening length: 5.74355 Bohr) occupying 0.743259 of unit cell:	Completed after 11 iterations at t[s]:    174.82
SCF: Cycle:  6   G: -1644.328018943921961   dG: -3.570e-04   |Residual|: 1.224e-02   |deigs|: 3.162e-04  t[s]:    175.55
	Linear fluid (dielectric constant: 78.4, screening length: 5.74355 Bohr) occupying 0.735845 of unit cell:	Completed after 10 iterations at t[s]:    176.69
	FillingsUpdate:  mu: -0.171251800  nElectrons: 269.438317
	Linear fluid (dielectric constant: 78.4, screening length: 5.74355 Bohr) occupying 0.743533 of unit cell:	Completed after 11 iterations at t[s]:    196.72
SCF: Cycle:  7   G: -1644.328845699292970   dG: -8.268e-04   |Residual|: 4.109e-03   |deigs|: 3.954e-04  t[s]:    197.37
	Linear fluid (dielectric constant: 78.4, screening length: 5.74355 Bohr) occupying 0.737693 of unit cell:	Completed after 10 iterations at t[s]:    198.46
	FillingsUpdate:  mu: -0.171251800  nElectrons: 269.472977
	Linear fluid (dielectric constant: 78.4, screening length: 5.74355 Bohr) occupying 0.743767 of unit cell:	Completed after 11 iterations at t[s]:    218.78
SCF: Cycle:  8   G: -1644.329030197131260   dG: -1.845e-04   |Residual|: 2.663e-03   |deigs|: 2.319e-04  t[s]:    219.49
	Linear fluid (dielectric constant: 78.4, screening length: 5.74355 Bohr) occupying 0.742718 of unit cell:	Completed after 10 iterations at t[s]:    220.62
	FillingsUpdate:  mu: -0.171251800  nElectrons: 269.515879
	Linear fluid (dielectric constant: 78.4, screening length: 5.74355 Bohr) occupying 0.743964 of unit cell:	Completed after 9 iterations at t[s]:    241.59
SCF: Cycle:  9   G: -1644.329046401070855   dG: -1.620e-05   |Residual|: 2.145e-03   |deigs|: 5.254e-04  t[s]:    242.23
	Linear fluid (dielectric constant: 78.4, screening length: 5.74355 Bohr) occupying 0.743783 of unit cell:	Completed after 8 iterations at t[s]:    243.14
	FillingsUpdate:  mu: -0.171251800  nElectrons: 269.485967
	Linear fluid (dielectric constant: 78.4, screening length: 5.74355 Bohr) occupying 0.743930 of unit cell:	Completed after 4 iterations at t[s]:    263.11
SCF: Cycle: 10   G: -1644.329074084351305   dG: -2.768e-05   |Residual|: 1.573e-03   |deigs|: 1.297e-04  t[s]:    263.86
	Linear fluid (dielectric constant: 78.4, screening length: 5.74355 Bohr) occupying 0.744346 of unit cell:	Completed after 8 iterations at t[s]:    264.95
	FillingsUpdate:  mu: -0.171251800  nElectrons: 269.428286
	Linear fluid (dielectric constant: 78.4, screening length: 5.74355 Bohr) occupying 0.743974 of unit cell:	Completed after 10 iterations at t[s]:    285.64
SCF: Cycle: 11   G: -1644.328966990147819   dG: +1.071e-04   |Residual|: 2.129e-03   |deigs|: 1.573e-03  t[s]:    286.37
	Linear fluid (dielectric constant: 78.4, screening length: 5.74355 Bohr) occupying 0.744258 of unit cell:	Completed after 11 iterations at t[s]:    287.67
	FillingsUpdate:  mu: -0.171251800  nElectrons: 269.499760
	Linear fluid (dielectric constant: 78.4, screening length: 5.74355 Bohr) occupying 0.743991 of unit cell:	Completed after 8 iterations at t[s]:    308.49
SCF: Cycle: 12   G: -1644.329050001976611   dG: -8.301e-05   |Residual|: 2.863e-03   |deigs|: 8.683e-04  t[s]:    309.20
	Linear fluid (dielectric constant: 78.4, screening length: 5.74355 Bohr) occupying 0.743259 of unit cell:	Completed after 9 iterations at t[s]:    310.28
	FillingsUpdate:  mu: -0.171251800  nElectrons: 269.466569
	Linear fluid (dielectric constant: 78.4, screening length: 5.74355 Bohr) occupying 0.743873 of unit cell:	Completed after 10 iterations at t[s]:    331.00
SCF: Cycle: 13   G: -1644.329031710083427   dG: +1.829e-05   |Residual|: 3.055e-03   |deigs|: 5.315e-04  t[s]:    331.79
	Linear fluid (dielectric constant: 78.4, screening length: 5.74355 Bohr) occupying 0.743721 of unit cell:	Completed after 10 iterations at t[s]:    332.90
	FillingsUpdate:  mu: -0.171251800  nElectrons: 269.471442
	Linear fluid (dielectric constant: 78.4, screening length: 5.74355 Bohr) occupying 0.743922 of unit cell:	Completed after 8 iterations at t[s]:    354.19
SCF: Cycle: 14   G: -1644.329065519246342   dG: -3.381e-05   |Residual|: 7.573e-04   |deigs|: 4.648e-04  t[s]:    355.09
	Linear fluid (dielectric constant: 78.4, screening length: 5.74355 Bohr) occupying 0.743804 of unit cell:	Completed after 8 iterations at t[s]:    356.08
	FillingsUpdate:  mu: -0.171251800  nElectrons: 269.497447
	Linear fluid (dielectric constant: 78.4, screening length: 5.74355 Bohr) occupying 0.743922 of unit cell:	Completed after 8 iterations at t[s]:    376.84
SCF: Cycle: 15   G: -1644.329073590780581   dG: -8.072e-06   |Residual|: 2.374e-04   |deigs|: 3.007e-04  t[s]:    377.58
	Linear fluid (dielectric constant: 78.4, screening length: 5.74355 Bohr) occupying 0.743879 of unit cell:	Completed after 6 iterations at t[s]:    378.45
	FillingsUpdate:  mu: -0.171251800  nElectrons: 269.481769
	Linear fluid (dielectric constant: 78.4, screening length: 5.74355 Bohr) occupying 0.743930 of unit cell:	Completed after 6 iterations at t[s]:    397.65
SCF: Cycle: 16   G: -1644.329075610520249   dG: -2.020e-06   |Residual|: 1.957e-04   |deigs|: 1.623e-04  t[s]:    398.32
	Linear fluid (dielectric constant: 78.4, screening length: 5.74355 Bohr) occupying 0.743900 of unit cell:	Completed after 6 iterations at t[s]:    399.17
	FillingsUpdate:  mu: -0.171251800  nElectrons: 269.489483
	Linear fluid (dielectric constant: 78.4, screening length: 5.74355 Bohr) occupying 0.743932 of unit cell:	Completed after 3 iterations at t[s]:    417.92
SCF: Cycle: 17   G: -1644.329076127833105   dG: -5.173e-07   |Residual|: 1.441e-04   |deigs|: 3.980e-05  t[s]:    418.59
	Linear fluid (dielectric constant: 78.4, screening length: 5.74355 Bohr) occupying 0.743938 of unit cell:	Completed after 2 iterations at t[s]:    419.15
	FillingsUpdate:  mu: -0.171251800  nElectrons: 269.477499
	Linear fluid (dielectric constant: 78.4, screening length: 5.74355 Bohr) occupying 0.743932 of unit cell:	Completed after 6 iterations at t[s]:    439.68
SCF: Cycle: 18   G: -1644.329073129406197   dG: +2.998e-06   |Residual|: 3.190e-04   |deigs|: 1.503e-04  t[s]:    440.47
	Linear fluid (dielectric constant: 78.4, screening length: 5.74355 Bohr) occupying 0.743932 of unit cell:	Completed after 6 iterations at t[s]:    441.33
	FillingsUpdate:  mu: -0.171251800  nElectrons: 269.499824
	Linear fluid (dielectric constant: 78.4, screening length: 5.74355 Bohr) occupying 0.743931 of unit cell:	Completed after 8 iterations at t[s]:    461.67
SCF: Cycle: 19   G: -1644.329071315602278   dG: +1.814e-06   |Residual|: 4.600e-04   |deigs|: 1.560e-04  t[s]:    462.45
	Linear fluid (dielectric constant: 78.4, screening length: 5.74355 Bohr) occupying 0.743927 of unit cell:	Completed after 8 iterations at t[s]:    463.43
	FillingsUpdate:  mu: -0.171251800  nElectrons: 269.490506
	Linear fluid (dielectric constant: 78.4, screening length: 5.74355 Bohr) occupying 0.743931 of unit cell:	Completed after 6 iterations at t[s]:    483.71
SCF: Cycle: 20   G: -1644.329075602782495   dG: -4.287e-06   |Residual|: 2.995e-04   |deigs|: 3.110e-05  t[s]:    484.41
	Linear fluid (dielectric constant: 78.4, screening length: 5.74355 Bohr) occupying 0.743931 of unit cell:	Completed after 7 iterations at t[s]:    485.36
	FillingsUpdate:  mu: -0.171251800  nElectrons: 269.487367
	Linear fluid (dielectric constant: 78.4, screening length: 5.74355 Bohr) occupying 0.743931 of unit cell:	Completed after 0 iterations at t[s]:    502.12
SCF: Cycle: 21   G: -1644.329076361109401   dG: -7.583e-07   |Residual|: 3.817e-05   |deigs|: 2.200e-05  t[s]:    502.86
	Linear fluid (dielectric constant: 78.4, screening length: 5.74355 Bohr) occupying 0.743932 of unit cell:	Completed after 0 iterations at t[s]:    503.25
	FillingsUpdate:  mu: -0.171251800  nElectrons: 269.487372
	Linear fluid (dielectric constant: 78.4, screening length: 5.74355 Bohr) occupying 0.743931 of unit cell:	Completed after 0 iterations at t[s]:    520.11
SCF: Cycle: 22   G: -1644.329076361765829   dG: -6.564e-10   |Residual|: 3.300e-05   |deigs|: 3.738e-05  t[s]:    520.94
	Linear fluid (dielectric constant: 78.4, screening length: 5.74355 Bohr) occupying 0.743931 of unit cell:	Completed after 0 iterations at t[s]:    521.34
	FillingsUpdate:  mu: -0.171251800  nElectrons: 269.487407
	Linear fluid (dielectric constant: 78.4, screening length: 5.74355 Bohr) occupying 0.743931 of unit cell:	Completed after 0 iterations at t[s]:    537.82
SCF: Cycle: 23   G: -1644.329076361804482   dG: -3.865e-11   |Residual|: 3.263e-05   |deigs|: 5.993e-06  t[s]:    538.59
SCF: Converged (|Delta E|<1.000000e-08 for 2 iters).


# Ionic positions in lattice coordinates:
ion Ni   0.000000006592593   0.000000010777778   0.500000009000002 0
ion Ni   0.333333339925926   0.000000010777778   0.500000009000002 0
ion Ni   0.666666673259259   0.000000010777778   0.500000009000002 0
ion Ni   1.000000006592593   0.333333344111112   0.500000009000002 0
ion Ni   0.333333339925926   0.333333344111112   0.500000009000002 0
ion Ni   0.666666673259259   0.333333344111112   0.500000009000002 0
ion Ni   0.000000006592593   0.666666677444445   0.500000009000002 0
ion Ni   0.333333339925926   0.666666677444445   0.500000009000002 0
ion Ni   0.666666673259259   0.666666677444445   0.500000009000002 0
ion Te   0.111111117703704   0.222222233000000   0.419785852293467 0
ion Te   0.222222228814815   0.111111121888889   0.580214165706536 0
ion Te   0.444444451037037   0.222222233000000   0.419785852293467 0
ion Te   0.555555562148148   0.111111121888889   0.580214165706536 0
ion Te   0.777777784370370   0.222222233000000   0.419785852293467 0
ion Te   0.888888895481482   0.111111121888889   0.580214165706536 0
ion Te   0.111111117703704   0.555555566333334   0.419785852293467 0
ion Te   0.222222228814815   0.444444455222223   0.580214165706536 0
ion Te   0.444444451037037   0.555555566333334   0.419785852293467 0
ion Te   0.555555562148148   0.444444455222223   0.580214165706536 0
ion Te   0.777777784370370   0.555555566333334   0.419785852293467 0
ion Te   0.888888895481482   0.444444455222223   0.580214165706536 0
ion Te   0.111111117703704   0.888888899666667   0.419785852293467 0
ion Te   0.222222228814815   0.777777788555556   0.580214165706536 0
ion Te   0.444444451037037   0.888888899666667   0.419785852293467 0
ion Te   0.555555562148148   0.777777788555556   0.580214165706536 0
ion Te   0.777777784370370   0.888888899666667   0.419785852293467 0
ion Te   0.888888895481482   0.777777788555556   0.580214165706536 0


# Forces in Lattice coordinates:
force Ni   0.000000000000000  -0.000000000000000  -0.000000000000000 0
force Ni  -0.000000000000000  -0.000000000000000   0.000000000000000 0
force Ni  -0.000000000000000  -0.000000000000000   0.000000000000000 0
force Ni   0.000000000000000   0.000000000000000  -0.000000000000000 0
force Ni  -0.000000000000000   0.000000000000000  -0.000000000000000 0
force Ni  -0.000000000000000  -0.000000000000000  -0.000000000000000 0
force Ni   0.000000000000000  -0.000000000000000   0.000000000000000 0
force Ni   0.000000000000000   0.000000000000000   0.000000000000000 0
force Ni  -0.000000000000000   0.000000000000000  -0.000000000000000 0
force Te   0.000000000000000  -0.000000000000000  -0.114751767240042 0
force Te  -0.000000000000000   0.000000000000000   0.114751767240382 0
force Te   0.000000000000000  -0.000000000000000  -0.114751767239700 0
force Te   0.000000000000000   0.000000000000000   0.114751767240268 0
force Te  -0.000000000000000  -0.000000000000000  -0.114751767239815 0
force Te   0.000000000000000   0.000000000000000   0.114751767240042 0
force Te  -0.000000000000000  -0.000000000000000  -0.114751767239929 0
force Te  -0.000000000000000  -0.000000000000000   0.114751767240155 0
force Te  -0.000000000000000  -0.000000000000000  -0.114751767239700 0
force Te   0.000000000000000   0.000000000000000   0.114751767240496 0
force Te  -0.000000000000000  -0.000000000000000  -0.114751767239814 0
force Te   0.000000000000000   0.000000000000000   0.114751767240382 0
force Te   0.000000000000000  -0.000000000000000  -0.114751767239929 0
force Te  -0.000000000000000   0.000000000000000   0.114751767240155 0
force Te   0.000000000000000  -0.000000000000000  -0.114751767239815 0
force Te   0.000000000000000  -0.000000000000000   0.114751767240269 0
force Te  -0.000000000000000  -0.000000000000000  -0.114751767239929 0
force Te   0.000000000000000   0.000000000000000   0.114751767240382 0

# Energy components:
   A_diel =        0.0280218268972370
   Eewald =     4531.9924232263720114
       EH =     6010.4358113910493557
     Eloc =   -12458.6980422104807076
      Enl =      171.0776798825401386
      Exc =     -289.9484175880708676
 Exc_core =       92.7970074312857491
       KE =      251.8714139790386355
  MuShift =        0.0053835784143322
-------------------------------------
     Etot =    -1690.4387184829543003
       TS =        0.0405614472988296
-------------------------------------
        F =    -1690.4792799302531421
      muN =      -46.1502035684486387
-------------------------------------
        G =    -1644.3290763618044821

IonicMinimize: Iter:   0  G: -1644.329076361804482  |grad|_K:  0.000e+00  t[s]:    541.65
IonicMinimize: Converged (|grad|_K<1.000000e-04).

#--- Lowdin population analysis ---
# oxidation-state Ni -0.862 -0.862 -0.862 -0.862 -0.862 -0.862 -0.862 -0.862 -0.862
# oxidation-state Te +0.558 +0.558 +0.558 +0.558 +0.558 +0.558 +0.558 +0.558 +0.558 +0.558 +0.558 +0.558 +0.558 +0.558 +0.558 +0.558 +0.558 +0.558


Dumping 'NbTe2.fillings' ... done
Dumping 'NbTe2.wfns' ... done
Dumping 'NbTe2.fluidState' ... done
Dumping 'NbTe2.eigenvals' ... done
End date and time: Sat Jul  4 06:59:50 2020  (Duration: 0-0:09:03.00)
Done!
