
*************** JDFTx 1.5.0  ***************

Start date and time: Wed Feb 24 10:22:16 2021
Executable jdftx_gpu with command-line: -i Charged.in -o Charged.out
Running on hosts (process indices):  amax (0-6)
Divided in process groups (process indices):  0 (0)  1 (1)  2 (2)  3 (3)  4 (4)  5 (5)  6 (6)
gpuInit: Found compatible cuda device 0 'Tesla K80'
gpuInit: Found compatible cuda device 1 'Tesla K80'
gpuInit: Found compatible cuda device 2 'Tesla K80'
gpuInit: Found compatible cuda device 3 'Tesla K80'
gpuInit: Found compatible cuda device 4 'Tesla K80'
gpuInit: Found compatible cuda device 5 'Tesla K80'
gpuInit: Found compatible cuda device 6 'Tesla K80'
gpuInit: Selected device 0
Resource initialization completed at t[s]:      3.27
Run totals: 7 processes, 24 threads, 7 GPUs


Input parsed successfully to the following command list (including defaults):

basis kpoint-dependent
cache-projectors no
coords-type Lattice
core-overlap-check none
coulomb-interaction Slab 001
coulomb-truncation-embed 0.5 0.5 0.5
davidson-band-ratio 1.1
dump End State
dump-name NbTe2.$VAR
elec-cutoff 20
elec-eigen-algo Davidson
elec-ex-corr gga-PBE
elec-initial-magnetization 10.000000 no
elec-smearing Gauss 0.0073499
electronic-minimize  \
	dirUpdateScheme      FletcherReeves \
	linminMethod         DirUpdateRecommended \
	nIterations          200 \
	history              15 \
	knormThreshold       0 \
	energyDiffThreshold  1e-08 \
	nEnergyDiff          2 \
	alphaTstart          1 \
	alphaTmin            1e-10 \
	updateTestStepSize   yes \
	alphaTreduceFactor   0.1 \
	alphaTincreaseFactor 3 \
	nAlphaAdjustMax      3 \
	wolfeEnergy          0.0001 \
	wolfeGradient        0.9 \
	fdTest               no
exchange-regularization WignerSeitzTruncated
fluid LinearPCM 298.000000 1.013250
fluid-anion F- 1 MeanFieldLJ \
	epsBulk 1 \
	pMol 0 \
	epsInf 1 \
	Pvap 0 \
	sigmaBulk 0 \
	Rvdw 2.24877 \
	Res 0 \
	tauNuc 343133
fluid-cation Na+ 1 MeanFieldLJ \
	epsBulk 1 \
	pMol 0 \
	epsInf 1 \
	Pvap 0 \
	sigmaBulk 0 \
	Rvdw 2.19208 \
	Res 0 \
	tauNuc 343133
fluid-ex-corr lda-TF lda-PZ
fluid-gummel-loop 10 1.000000e-05
fluid-minimize  \
	dirUpdateScheme      PolakRibiere \
	linminMethod         DirUpdateRecommended \
	nIterations          400 \
	history              15 \
	knormThreshold       1e-11 \
	energyDiffThreshold  0 \
	nEnergyDiff          2 \
	alphaTstart          1 \
	alphaTmin            1e-10 \
	updateTestStepSize   yes \
	alphaTreduceFactor   0.1 \
	alphaTincreaseFactor 3 \
	nAlphaAdjustMax      6 \
	wolfeEnergy          0.0001 \
	wolfeGradient        0.9 \
	fdTest               no
fluid-solvent H2O 55.338 ScalarEOS \
	epsBulk 78.4 \
	pMol 0.92466 \
	epsInf 1.77 \
	Pvap 1.06736e-10 \
	sigmaBulk 4.62e-05 \
	Rvdw 2.61727 \
	Res 1.42 \
	tauNuc 343133 \
	poleEl 15 7 1
forces-output-coords Positions
initial-state NbTe2.$VAR
ion Zr   0.125000000000000   0.000000000000000   0.597211559543416 1
ion Zr   0.000000000000000   0.125000000000000   0.402785097123251 1
ion Zr   0.375000000000000   0.000000000000000   0.597211559543416 1
ion Zr   0.250000000000000   0.125000000000000   0.402785097123251 1
ion Zr   0.625000000000000   0.000000000000000   0.597211559543416 1
ion Zr   0.500000000000000   0.125000000000000   0.402785097123251 1
ion Zr   0.875000000000000   0.000000000000000   0.597211559543416 1
ion Zr   0.750000000000000   0.125000000000000   0.402785097123251 1
ion Zr   0.125000000000000   0.250000000000000   0.597211559543416 1
ion Zr   0.000000000000000   0.375000000000000   0.402785097123251 1
ion Zr   0.375000000000000   0.250000000000000   0.597211559543416 1
ion Zr   0.250000000000000   0.375000000000000   0.402785097123251 1
ion Zr   0.625000000000000   0.250000000000000   0.597211559543416 1
ion Zr   0.500000000000000   0.375000000000000   0.402785097123251 1
ion Zr   0.875000000000000   0.250000000000000   0.597211559543416 1
ion Zr   0.750000000000000   0.375000000000000   0.402785097123251 1
ion Zr   0.125000000000000   0.500000000000000   0.597211559543416 1
ion Zr   0.000000000000000   0.625000000000000   0.402785097123251 1
ion Zr   0.375000000000000   0.500000000000000   0.597211559543416 1
ion Zr   0.250000000000000   0.625000000000000   0.402785097123251 1
ion Zr   0.625000000000000   0.500000000000000   0.597211559543416 1
ion Zr   0.500000000000000   0.625000000000000   0.402785097123251 1
ion Zr   0.875000000000000   0.500000000000000   0.597211559543416 1
ion Zr   0.750000000000000   0.625000000000000   0.402785097123251 1
ion Zr   0.125000000000000   0.750000000000000   0.597211559543416 1
ion Zr   0.000000000000000   0.875000000000000   0.402785097123251 1
ion Zr   0.375000000000000   0.750000000000000   0.597211559543416 1
ion Zr   0.250000000000000   0.875000000000000   0.402785097123251 1
ion Zr   0.625000000000000   0.750000000000000   0.597211559543416 1
ion Zr   0.500000000000000   0.875000000000000   0.402785097123251 1
ion Zr   0.875000000000000   0.750000000000000   0.597211559543416 1
ion Zr   0.750000000000000   0.875000000000000   0.402785097123251 1
ion Si   0.125000000000000   0.125000000000000   0.499998328333333 1
ion Si   0.000000000000000   0.000000000000000   0.499998328333333 1
ion Si   0.375000000000000   0.125000000000000   0.499998328333333 1
ion Si   0.250000000000000   0.000000000000000   0.499998328333333 1
ion Si   0.625000000000000   0.125000000000000   0.499998328333333 1
ion Si   0.500000000000000   0.000000000000000   0.499998328333333 1
ion Si   0.875000000000000   0.125000000000000   0.499998328333333 1
ion Si   0.750000000000000   0.000000000000000   0.499998328333333 1
ion Si   0.125000000000000   0.375000000000000   0.499998328333333 1
ion Si   0.000000000000000   0.250000000000000   0.499998328333333 1
ion Si   0.375000000000000   0.375000000000000   0.499998328333333 1
ion Si   0.250000000000000   0.250000000000000   0.499998328333333 1
ion Si   0.625000000000000   0.375000000000000   0.499998328333333 1
ion Si   0.500000000000000   0.250000000000000   0.499998328333333 1
ion Si   0.875000000000000   0.375000000000000   0.499998328333333 1
ion Si   0.750000000000000   0.250000000000000   0.499998328333333 1
ion Si   0.125000000000000   0.625000000000000   0.499998328333333 1
ion Si   0.000000000000000   0.500000000000000   0.499998328333333 1
ion Si   0.375000000000000   0.625000000000000   0.499998328333333 1
ion Si   0.250000000000000   0.500000000000000   0.499998328333333 1
ion Si   0.625000000000000   0.625000000000000   0.499998328333333 1
ion Si   0.500000000000000   0.500000000000000   0.499998328333333 1
ion Si   0.875000000000000   0.625000000000000   0.499998328333333 1
ion Si   0.750000000000000   0.500000000000000   0.499998328333333 1
ion Si   0.125000000000000   0.875000000000000   0.499998328333333 1
ion Si   0.000000000000000   0.750000000000000   0.499998328333333 1
ion Si   0.375000000000000   0.875000000000000   0.499998328333333 1
ion Si   0.250000000000000   0.750000000000000   0.499998328333333 1
ion Si   0.625000000000000   0.875000000000000   0.499998328333333 1
ion Si   0.500000000000000   0.750000000000000   0.499998328333333 1
ion Si   0.875000000000000   0.875000000000000   0.499998328333333 1
ion Si   0.750000000000000   0.750000000000000   0.499998328333333 1
ion Te   0.000000000000000   0.125000000000000   0.661695933571344 1
ion Te   0.125000000000000   0.000000000000000   0.338300723095323 1
ion Te   0.250000000000000   0.125000000000000   0.661695933571344 1
ion Te   0.375000000000000   0.000000000000000   0.338300723095323 1
ion Te   0.500000000000000   0.125000000000000   0.661695933571344 1
ion Te   0.625000000000000   0.000000000000000   0.338300723095323 1
ion Te   0.750000000000000   0.125000000000000   0.661695933571344 1
ion Te   0.875000000000000   0.000000000000000   0.338300723095323 1
ion Te   0.000000000000000   0.375000000000000   0.661695933571344 1
ion Te   0.125000000000000   0.250000000000000   0.338300723095323 1
ion Te   0.250000000000000   0.375000000000000   0.661695933571344 1
ion Te   0.375000000000000   0.250000000000000   0.338300723095323 1
ion Te   0.500000000000000   0.375000000000000   0.661695933571344 1
ion Te   0.625000000000000   0.250000000000000   0.338300723095323 1
ion Te   0.750000000000000   0.375000000000000   0.661695933571344 1
ion Te   0.875000000000000   0.250000000000000   0.338300723095323 1
ion Te   0.000000000000000   0.625000000000000   0.661695933571344 1
ion Te   0.125000000000000   0.500000000000000   0.338300723095323 1
ion Te   0.250000000000000   0.625000000000000   0.661695933571344 1
ion Te   0.375000000000000   0.500000000000000   0.338300723095323 1
ion Te   0.500000000000000   0.625000000000000   0.661695933571344 1
ion Te   0.625000000000000   0.500000000000000   0.338300723095323 1
ion Te   0.750000000000000   0.625000000000000   0.661695933571344 1
ion Te   0.875000000000000   0.500000000000000   0.338300723095323 1
ion Te   0.000000000000000   0.875000000000000   0.661695933571344 1
ion Te   0.125000000000000   0.750000000000000   0.338300723095323 1
ion Te   0.250000000000000   0.875000000000000   0.661695933571344 1
ion Te   0.375000000000000   0.750000000000000   0.338300723095323 1
ion Te   0.500000000000000   0.875000000000000   0.661695933571344 1
ion Te   0.625000000000000   0.750000000000000   0.338300723095323 1
ion Te   0.750000000000000   0.875000000000000   0.661695933571344 1
ion Te   0.875000000000000   0.750000000000000   0.338300723095323 1
ion-species GBRV/$ID_pbe.uspp
ion-width Ecut
ionic-minimize  \
	dirUpdateScheme      L-BFGS \
	linminMethod         DirUpdateRecommended \
	nIterations          500 \
	history              15 \
	knormThreshold       0.0001 \
	energyDiffThreshold  1e-06 \
	nEnergyDiff          2 \
	alphaTstart          1 \
	alphaTmin            1e-10 \
	updateTestStepSize   yes \
	alphaTreduceFactor   0.1 \
	alphaTincreaseFactor 3 \
	nAlphaAdjustMax      3 \
	wolfeEnergy          0.0001 \
	wolfeGradient        0.9 \
	fdTest               no
kpoint   0.000000000000   0.000000000000   0.000000000000  1.00000000000000
kpoint-folding 2 2 1 
latt-move-scale 1 1 1
latt-scale 1.88973 1.88973 1.88973 
lattice Triclinic 14.5984 14.5984 22.0593 90 90 90
lattice-minimize  \
	dirUpdateScheme      L-BFGS \
	linminMethod         DirUpdateRecommended \
	nIterations          0 \
	history              15 \
	knormThreshold       0 \
	energyDiffThreshold  1e-06 \
	nEnergyDiff          2 \
	alphaTstart          1 \
	alphaTmin            1e-10 \
	updateTestStepSize   yes \
	alphaTreduceFactor   0.1 \
	alphaTincreaseFactor 3 \
	nAlphaAdjustMax      3 \
	wolfeEnergy          0.0001 \
	wolfeGradient        0.9 \
	fdTest               no
lcao-params -1 1e-06 0.0073499
pcm-variant CANDLE
spintype z-spin
subspace-rotation-factor 1 yes
symmetries automatic
symmetry-threshold 0.0001
target-mu -0.171252 no




---------- Setting up symmetries ----------

Found 16 point-group symmetries of the bravais lattice
Found 256 space-group symmetries with basis
Applied RMS atom displacement 1.00867e-14 bohrs to make symmetries exact.

---------- Initializing the Grid ----------
R = 
[     27.587          0          0  ]
[          0     27.587          0  ]
[          0          0     41.686  ]
unit cell volume = 31724.8
G =
[   0.227759          0          0  ]
[          0   0.227759          0  ]
[          0          0   0.150726  ]
Minimum fftbox size, Smin = [  112  112  168  ]
Chosen fftbox size, S = [  112  112  168  ]

---------- Exchange Correlation functional ----------
Initalized PBE GGA exchange.
Initalized PBE GGA correlation.

---------- Setting up pseudopotentials ----------
Width of ionic core gaussian charges (only for fluid interactions / plotting) set to 0.397384

Reading pseudopotential file '/home/guoxy/vasp/jdftx-1.5.0/build/pseudopotentials/GBRV/zr_pbe.uspp':
  Title: Zr.  Created by USPP 7.3.6 on 14-9-2013
  Reference state energy: -49.308156.  12 valence electrons in orbitals:
    |400>  occupation: 2  eigenvalue: -2.002953
    |410>  occupation: 6  eigenvalue: -1.192957
    |420>  occupation: 2  eigenvalue: -0.132269
    |500>  occupation: 2  eigenvalue: -0.163143
    |510>  occupation: 0  eigenvalue: -0.053997
  lMax: 2  lLocal: 3  QijEcut: 5
  6 projectors sampled on a log grid with 625 points:
    l: 0  eig: -2.002953  rCut: 1.8
    l: 0  eig: -0.132269  rCut: 1.8
    l: 1  eig: -1.192956  rCut: 2
    l: 1  eig: 0.150000  rCut: 2
    l: 2  eig: -0.163145  rCut: 2.2
    l: 2  eig: 0.150000  rCut: 2.2
  Partial core density with radius 1.2
  Transforming core density to a uniform radial grid of dG=0.02 with 1107 points.
  Transforming local potential to a uniform radial grid of dG=0.02 with 1107 points.
  Transforming nonlocal projectors to a uniform radial grid of dG=0.02 with 432 points.
  Transforming density augmentations to a uniform radial grid of dG=0.02 with 1107 points.
  Transforming atomic orbitals to a uniform radial grid of dG=0.02 with 432 points.
  Core radius for overlap checks: 2.20 bohrs.

Reading pseudopotential file '/home/guoxy/vasp/jdftx-1.5.0/build/pseudopotentials/GBRV/si_pbe.uspp':
  Title: Si.  Created by USPP 7.3.6 on 14-9-2013
  Reference state energy: -4.599342.  4 valence electrons in orbitals:
    |300>  occupation: 2  eigenvalue: -0.397366
    |310>  occupation: 2  eigenvalue: -0.149981
  lMax: 2  lLocal: 3  QijEcut: 5
  6 projectors sampled on a log grid with 627 points:
    l: 0  eig: -0.397364  rCut: 1.6
    l: 0  eig: 1.000000  rCut: 1.6
    l: 1  eig: -0.149982  rCut: 1.6
    l: 1  eig: 1.000000  rCut: 1.6
    l: 2  eig: -0.100000  rCut: 1.7
    l: 2  eig: 0.100000  rCut: 1.7
  Partial core density with radius 1.45
  Transforming core density to a uniform radial grid of dG=0.02 with 1107 points.
  Transforming local potential to a uniform radial grid of dG=0.02 with 1107 points.
  Transforming nonlocal projectors to a uniform radial grid of dG=0.02 with 432 points.
  Transforming density augmentations to a uniform radial grid of dG=0.02 with 1107 points.
  Transforming atomic orbitals to a uniform radial grid of dG=0.02 with 432 points.
  Core radius for overlap checks: 1.70 bohrs.

Reading pseudopotential file '/home/guoxy/vasp/jdftx-1.5.0/build/pseudopotentials/GBRV/te_pbe.uspp':
  Title: Te.  Created by USPP 7.3.6 on 14-9-2013
  Reference state energy: -13.134220.  6 valence electrons in orbitals:
    |500>  occupation: 2  eigenvalue: -0.555231
    |510>  occupation: 4  eigenvalue: -0.218781
  lMax: 2  lLocal: 2  QijEcut: 5
  5 projectors sampled on a log grid with 723 points:
    l: 0  eig: -0.555229  rCut: 2.1
    l: 0  eig: 1.000000  rCut: 2.1
    l: 1  eig: -0.218780  rCut: 2.1
    l: 1  eig: 1.000000  rCut: 2.1
    l: 2  eig: 1.000000  rCut: 2.6
  Partial core density with radius 1.8
  Transforming core density to a uniform radial grid of dG=0.02 with 1107 points.
  Transforming local potential to a uniform radial grid of dG=0.02 with 1107 points.
  Transforming nonlocal projectors to a uniform radial grid of dG=0.02 with 432 points.
  Transforming density augmentations to a uniform radial grid of dG=0.02 with 1107 points.
  Transforming atomic orbitals to a uniform radial grid of dG=0.02 with 432 points.
  Core radius for overlap checks: 2.60 bohrs.

Initialized 3 species with 96 total atoms.

Folded 1 k-points by 2x2x1 to 4 k-points.

---------- Setting up k-points, bands, fillings ----------
Reduced to 3 k-points under symmetry. 
Computing the number of bands and number of electrons
Calculating initial fillings.
nElectrons: 704.000000   nBands: 672   nStates: 6

----- Setting up reduced wavefunction bases (one per k-point) -----
average nbasis = 135512.750 , ideal nbasis = 135530.722

---------- Setting up coulomb interaction ----------
Fluid mode embedding: using embedded box, but periodic Coulomb kernel.
(Fluid response is responsible for (approximate) separation between periodic images.)
Setting up double-sized grid for truncated Coulomb potentials:
R = 
[     27.587          0          0  ]
[          0     27.587          0  ]
[          0          0    83.3721  ]
unit cell volume = 63449.6
G =
[   0.227759          0          0  ]
[          0   0.227759          0  ]
[          0          0  0.0753632  ]
Chosen fftbox size, S = [  112  112  336  ]
Integer grid location selected as the embedding center:
   Grid: [  56  56  84  ]
   Lattice: [  0.5  0.5  0.5  ]
   Cartesian: [  13.7935  13.7935  20.843  ]
Constructing Wigner-Seitz cell: 6 faces (6 quadrilaterals, 0 hexagons)
Range-separation parameter for embedded mesh potentials due to point charges: 0.628421 bohrs.

Initializing van der Waals corrections
	NOTE: vdW corrections apply only for interactions with fluid.
	Zr:  C6:  427.91 Eh-a0^6  R0: 3.097 a0
	Si:  C6:  160.10 Eh-a0^6  R0: 3.243 a0
	Te:  C6:  550.54 Eh-a0^6  R0: 3.575 a0

---------- Setting up ewald sum ----------
Optimum gaussian width for ewald sums = 7.436030 bohr.
Real space sum over 405 unit cells with max indices [  4  4  2  ]
Reciprocal space sum over 8325 terms with max indices [  7  7  18  ]

---------- Allocating electronic variables ----------
Initializing wave functions:  linear combination of atomic orbitals
Zr pseudo-atom occupations:   s ( 2 2 )  p ( 6 0 )  d ( 2 )
Si pseudo-atom occupations:   s ( 2 )  p ( 2 )
Te pseudo-atom occupations:   s ( 2 )  p ( 4 )
	FillingsUpdate:  mu: -0.171251800  nElectrons: 704.000000  magneticMoment: [ Abs: 4.10439  Tot: +4.08799 ]
LCAOMinimize: Iter:   0  G: -1753.8909687288150963  |grad|_K:  1.354e-02  alpha:  1.000e+00
	FillingsUpdate:  mu: -0.171251800  nElectrons: 704.000000  magneticMoment: [ Abs: 1.65977  Tot: +1.65847 ]
LCAOMinimize: Iter:   1  G: -1771.4991519070399590  |grad|_K:  9.533e-03  alpha:  2.324e-01  linmin:  3.165e-01  cgtest: -8.710e-01  t[s]:    309.13
LCAOMinimize: 	Bad step direction: g.d > 0.
LCAOMinimize: 	Undoing step.
LCAOMinimize: 	Step failed: resetting search direction.
	FillingsUpdate:  mu: -0.171251800  nElectrons: 704.000000  magneticMoment: [ Abs: 1.65977  Tot: +1.65847 ]
LCAOMinimize: Iter:   2  G: -1771.4991519070399590  |grad|_K:  9.533e-03  alpha:  0.000e+00
	FillingsUpdate:  mu: -0.171251800  nElectrons: 704.000000  magneticMoment: [ Abs: 1.06621  Tot: +0.92648 ]
LCAOMinimize: Iter:   3  G: -1783.3304749502842697  |grad|_K:  8.586e-04  alpha:  1.322e-01  linmin:  1.964e-01  cgtest: -8.720e-01  t[s]:    470.09
	FillingsUpdate:  mu: -0.171251800  nElectrons: 704.000000  magneticMoment: [ Abs: 0.98912  Tot: +0.85999 ]
LCAOMinimize: Iter:   4  G: -1783.4286792657721890  |grad|_K:  6.716e-04  alpha:  1.641e-01  linmin: -5.095e-02  cgtest:  7.952e-01  t[s]:    564.38
LCAOMinimize: Encountered beta<0, resetting CG.
	FillingsUpdate:  mu: -0.171251800  nElectrons: 704.000000  magneticMoment: [ Abs: 0.85863  Tot: +0.72847 ]
LCAOMinimize: Iter:   5  G: -1783.5298270102189235  |grad|_K:  9.420e-05  alpha:  1.652e-01  linmin:  2.795e-01  cgtest: -6.998e-01  t[s]:    658.75
LCAOMinimize: 	Step increased G by 8.345001e-06, reducing alpha to 6.378147e-03.
	FillingsUpdate:  mu: -0.171251800  nElectrons: 704.000000  magneticMoment: [ Abs: 0.85457  Tot: +0.72443 ]
LCAOMinimize: Iter:   6  G: -1783.5298356705036440  |grad|_K:  9.336e-05  alpha:  6.378e-03  linmin: -1.952e-01  cgtest:  9.998e-01  t[s]:    819.18
LCAOMinimize: Encountered beta<0, resetting CG.
	FillingsUpdate:  mu: -0.171251800  nElectrons: 704.000000  magneticMoment: [ Abs: 0.85111  Tot: +0.72099 ]
LCAOMinimize: Iter:   7  G: -1783.5299105410340417  |grad|_K:  8.983e-05  alpha:  6.349e-03  linmin: -3.600e-01  cgtest:  9.999e-01  t[s]:    912.66
LCAOMinimize: Encountered beta<0, resetting CG.
	FillingsUpdate:  mu: -0.171251800  nElectrons: 704.000000  magneticMoment: [ Abs: 0.84782  Tot: +0.71773 ]
LCAOMinimize: Iter:   8  G: -1783.5299736166873572  |grad|_K:  8.661e-05  alpha:  6.045e-03  linmin: -3.589e-01  cgtest:  9.999e-01  t[s]:   1006.48
LCAOMinimize: Encountered beta<0, resetting CG.
	FillingsUpdate:  mu: -0.171251800  nElectrons: 704.000000  magneticMoment: [ Abs: 0.84482  Tot: +0.71475 ]
LCAOMinimize: Iter:   9  G: -1783.5300248826558800  |grad|_K:  8.379e-05  alpha:  5.528e-03  linmin: -3.579e-01  cgtest:  9.999e-01  t[s]:   1100.64
LCAOMinimize: Encountered beta<0, resetting CG.
	FillingsUpdate:  mu: -0.171251800  nElectrons: 704.000000  magneticMoment: [ Abs: 0.84218  Tot: +0.71212 ]
LCAOMinimize: Iter:  10  G: -1783.5300654577624755  |grad|_K:  8.140e-05  alpha:  4.881e-03  linmin: -3.569e-01  cgtest:  9.999e-01  t[s]:   1193.76
LCAOMinimize: Encountered beta<0, resetting CG.
	FillingsUpdate:  mu: -0.171251800  nElectrons: 704.000000  magneticMoment: [ Abs: 0.83992  Tot: +0.70988 ]
LCAOMinimize: Iter:  11  G: -1783.5300969868287666  |grad|_K:  7.941e-05  alpha:  4.182e-03  linmin: -3.560e-01  cgtest:  9.999e-01  t[s]:   1287.92
LCAOMinimize: Encountered beta<0, resetting CG.
	FillingsUpdate:  mu: -0.171251800  nElectrons: 704.000000  magneticMoment: [ Abs: 0.83804  Tot: +0.70801 ]
LCAOMinimize: Iter:  12  G: -1783.5301211984972269  |grad|_K:  7.780e-05  alpha:  3.496e-03  linmin: -3.553e-01  cgtest:  1.000e+00  t[s]:   1382.10
LCAOMinimize: Encountered beta<0, resetting CG.
	FillingsUpdate:  mu: -0.171251800  nElectrons: 704.000000  magneticMoment: [ Abs: 0.83649  Tot: +0.70648 ]
LCAOMinimize: Iter:  13  G: -1783.5301396610941538  |grad|_K:  7.651e-05  alpha:  2.865e-03  linmin: -3.547e-01  cgtest:  1.000e+00  t[s]:   1476.02
LCAOMinimize: Encountered beta<0, resetting CG.
	FillingsUpdate:  mu: -0.171251800  nElectrons: 704.000000  magneticMoment: [ Abs: 0.83525  Tot: +0.70524 ]
LCAOMinimize: Iter:  14  G: -1783.5301536872311772  |grad|_K:  7.549e-05  alpha:  2.310e-03  linmin: -3.542e-01  cgtest:  1.000e+00  t[s]:   1569.47
LCAOMinimize: Encountered beta<0, resetting CG.
	FillingsUpdate:  mu: -0.171251800  nElectrons: 704.000000  magneticMoment: [ Abs: 0.83426  Tot: +0.70426 ]
LCAOMinimize: Iter:  15  G: -1783.5301643256941588  |grad|_K:  7.470e-05  alpha:  1.839e-03  linmin: -3.537e-01  cgtest:  1.000e+00  t[s]:   1664.29
LCAOMinimize: Encountered beta<0, resetting CG.
	FillingsUpdate:  mu: -0.171251800  nElectrons: 704.000000  magneticMoment: [ Abs: 0.83349  Tot: +0.70349 ]
LCAOMinimize: Iter:  16  G: -1783.5301723914817558  |grad|_K:  7.407e-05  alpha:  1.450e-03  linmin: -3.534e-01  cgtest:  1.000e+00  t[s]:   1758.85
LCAOMinimize: Encountered beta<0, resetting CG.
	FillingsUpdate:  mu: -0.171251800  nElectrons: 704.000000  magneticMoment: [ Abs: 0.83288  Tot: +0.70289 ]
LCAOMinimize: Iter:  17  G: -1783.5301785084359381  |grad|_K:  7.359e-05  alpha:  1.134e-03  linmin: -3.532e-01  cgtest:  1.000e+00  t[s]:   1852.32
LCAOMinimize: Encountered beta<0, resetting CG.
	FillingsUpdate:  mu: -0.171251800  nElectrons: 704.000000  magneticMoment: [ Abs: 0.83241  Tot: +0.70242 ]
LCAOMinimize: Iter:  18  G: -1783.5301831502160894  |grad|_K:  7.322e-05  alpha:  8.817e-04  linmin: -3.529e-01  cgtest:  1.000e+00  t[s]:   1947.21
LCAOMinimize: Encountered beta<0, resetting CG.
	FillingsUpdate:  mu: -0.171251800  nElectrons: 704.000000  magneticMoment: [ Abs: 0.83204  Tot: +0.70205 ]
LCAOMinimize: Iter:  19  G: -1783.5301866749643978  |grad|_K:  7.293e-05  alpha:  6.824e-04  linmin: -3.528e-01  cgtest:  1.000e+00  t[s]:   2041.61
LCAOMinimize: Encountered beta<0, resetting CG.
	FillingsUpdate:  mu: -0.171251800  nElectrons: 704.000000  magneticMoment: [ Abs: 0.83176  Tot: +0.70177 ]
LCAOMinimize: Iter:  20  G: -1783.5301893532528084  |grad|_K:  7.272e-05  alpha:  5.262e-04  linmin: -3.527e-01  cgtest:  1.000e+00  t[s]:   2133.31
LCAOMinimize: Encountered beta<0, resetting CG.
	FillingsUpdate:  mu: -0.171251800  nElectrons: 704.000000  magneticMoment: [ Abs: 0.83154  Tot: +0.70156 ]
LCAOMinimize: Iter:  21  G: -1783.5301913895712005  |grad|_K:  7.255e-05  alpha:  4.047e-04  linmin: -3.526e-01  cgtest:  1.000e+00  t[s]:   2227.04
LCAOMinimize: Encountered beta<0, resetting CG.
	FillingsUpdate:  mu: -0.171251800  nElectrons: 704.000000  magneticMoment: [ Abs: 0.83137  Tot: +0.70139 ]
LCAOMinimize: Iter:  22  G: -1783.5301929386125721  |grad|_K:  7.242e-05  alpha:  3.106e-04  linmin: -3.525e-01  cgtest:  1.000e+00  t[s]:   2320.85
LCAOMinimize: Encountered beta<0, resetting CG.
	FillingsUpdate:  mu: -0.171251800  nElectrons: 704.000000  magneticMoment: [ Abs: 0.83125  Tot: +0.70127 ]
LCAOMinimize: Iter:  23  G: -1783.5301941174689091  |grad|_K:  7.232e-05  alpha:  2.379e-04  linmin: -3.524e-01  cgtest:  1.000e+00  t[s]:   2415.80
LCAOMinimize: Encountered beta<0, resetting CG.
	FillingsUpdate:  mu: -0.171251800  nElectrons: 704.000000  magneticMoment: [ Abs: 0.83115  Tot: +0.70117 ]
LCAOMinimize: Iter:  24  G: -1783.5301950149059849  |grad|_K:  7.224e-05  alpha:  1.821e-04  linmin: -3.524e-01  cgtest:  1.000e+00  t[s]:   2509.71
LCAOMinimize: Encountered beta<0, resetting CG.
	FillingsUpdate:  mu: -0.171251800  nElectrons: 704.000000  magneticMoment: [ Abs: 0.83108  Tot: +0.70110 ]
LCAOMinimize: Iter:  25  G: -1783.5301956982896172  |grad|_K:  7.219e-05  alpha:  1.392e-04  linmin: -3.524e-01  cgtest:  1.000e+00  t[s]:   2603.36
LCAOMinimize: Encountered beta<0, resetting CG.
LCAOMinimize: Converged (|Delta G|<1.000000e-06 for 2 iters).
----- createFluidSolver() ----- (Fluid-side solver setup)
   Initializing fluid molecule 'H2O'
     Initializing site 'O'
       Electron density: proportional to exp(-r/0.36935)*erfc((r-0.51523)/0.36823) with norm 6.826
       Charge density: gaussian nuclear width 0.478731 with net site charge 0.826
       Polarizability: cuspless exponential with width 0.32 and norm 3.73
       Hard sphere radius: 2.57003 bohrs
       Positions in reference frame:
         [ +0.000000 +0.000000 +0.000000 ]
     Initializing site 'H'
       Electron density: proportional to exp(-r/0.34641)*erfc((r-0)/0.390882) with norm 0.587
       Charge density: gaussian nuclear width 0.377945 with net site charge -0.413
       Polarizability: cuspless exponential with width 0.39 and norm 3.3
       Positions in reference frame:
         [ +0.000000 -1.441945 +1.122523 ]
         [ +0.000000 +1.441945 +1.122523 ]
     Net charge: 0   dipole magnitude: 0.927204
     Initializing spherical shell mfKernel with radius 2.61727 Bohr
     deltaS corrections:
       site 'O': -7.54299
       site 'H': -6.83917
   Initializing fluid molecule 'Na+'
     Initializing site 'Na'
       Electron density: proportional to exp(-r/0.19682)*erfc((r-0.71491)/0.41314) with norm 8.1383
       Charge density: gaussian nuclear width 0.365347 with net site charge -1
       Hard sphere radius: 1.86327 bohrs
       Positions in reference frame:
         [ +0.000000 +0.000000 +0.000000 ]
     Net charge: -1   dipole magnitude: 0
     Initializing gaussian mfKernel with width: 1.55004 Bohr
     deltaS corrections:
       site 'Na': -22.3555
   Initializing fluid molecule 'F-'
     Initializing site 'F'
       Electron density: proportional to exp(-r/0.38886)*erfc((r-0)/0.438782) with norm 8
       Charge density: gaussian nuclear width 0.374796 with net site charge 1
       Hard sphere radius: 2.39995 bohrs
       Positions in reference frame:
         [ +0.000000 +0.000000 +0.000000 ]
     Net charge: 1   dipole magnitude: 0
     Initializing gaussian mfKernel with width: 1.59012 Bohr
     deltaS corrections:
       site 'F': -9.04335

Correction to mu due to finite nuclear width = -0.0110089
   Cavity determined by nc: 0.00142 and sigma: 0.707107
   Nonlocal vdW cavity from gaussian model electron density with norm = 8 and sigma = 0.993594 bohr
   Charge asymmetry in cavity with sensitivity pCavity = 36.5 e-bohr/Eh
   Electrostatic cavity expanded by eta = 1.46 bohrs
   Weighted density cavitation model constrained by Nbulk: 0.0049383 bohr^-3, Pvap: 3.14029 kPa, Rvdw: 2.61727 bohr and sigmaBulk: 4.62e-05 Eh/bohr^2 at T: 298 K.
   Weighted density dispersion model using vdW pair potentials with single solvent site with sqrtC6eff: 0.77 SI.


---- Citations for features of the code used in this run ----

   Software package:
      R. Sundararaman, K. Letchworth-Weaver, K.A. Schwarz, D. Gunceler, Y. Ozhabes and T.A. Arias, 'JDFTx: software for joint density-functional theory', SoftwareX 6, 278 (2017)

   gga-PBE exchange-correlation functional:
      J.P. Perdew, K. Burke and M. Ernzerhof, Phys. Rev. Lett. 77, 3865 (1996)

   Pseudopotentials:
      KF Garrity, JW Bennett, KM Rabe and D Vanderbilt, Comput. Mater. Sci. 81, 446 (2014)

   Truncated Coulomb potentials:
      R. Sundararaman and T.A. Arias, Phys. Rev. B 87, 165122 (2013)

   Van der Waals correction pair-potentials:
      S. Grimme, J. Comput. Chem. 27, 1787 (2006)

   Charge-asymmetric nonlocally-determined local-electric (CANDLE) solvation model:
      R. Sundararaman and W.A. Goddard III, J. Chem. Phys. 142, 064107 (2015)

   Total energy minimization with Auxiliary Hamiltonian:
      C. Freysoldt, S. Boeck, and J. Neugebauer, Phys. Rev. B 79, 241103(R) (2009)

   Grand-canonical (fixed-potential) DFT:
      R. Sundararaman, W. A. Goddard III and T. A. Arias, J. Chem. Phys. 146, 114104 (2017)

This list may not be complete. Please suggest additional citations or
report any other bugs at https://github.com/shankar1729/jdftx/issues

Initialization completed successfully at t[s]:   2626.00

Fluid solver invoked on fresh (partially random / LCAO) wavefunctions
Running a vacuum solve first:

-------- Initial electronic minimization -----------
	FillingsUpdate:  mu: -0.069006964  nElectrons: 704.000000  magneticMoment: [ Abs: 0.83108  Tot: +0.70110 ]
ElecMinimize: Iter:   0  G: -1783.555076760581414  |grad|_K:  5.208e-05  alpha:  1.000e+00
	FillingsUpdate:  mu: -0.051474890  nElectrons: 704.000000  magneticMoment: [ Abs: 0.29189  Tot: +0.11461 ]
	SubspaceRotationAdjust: set factor to 0.956
ElecMinimize: Iter:   1  G: -1785.115994738233894  |grad|_K:  2.451e-05  alpha:  1.050e+00  linmin: -1.163e-05  t[s]:   2874.22
	FillingsUpdate:  mu: -0.017838874  nElectrons: 704.000000  magneticMoment: [ Abs: 0.16043  Tot: +0.00634 ]
	SubspaceRotationAdjust: set factor to 0.618
ElecMinimize: Iter:   2  G: -1785.293189415351890  |grad|_K:  2.394e-05  alpha:  5.053e-01  linmin: -2.617e-04  t[s]:   3030.29
	FillingsUpdate:  mu: -0.057009193  nElectrons: 704.000000  magneticMoment: [ Abs: 0.06998  Tot: -0.04997 ]
	SubspaceRotationAdjust: set factor to 0.383
ElecMinimize: Iter:   3  G: -1785.387466594092075  |grad|_K:  1.075e-05  alpha:  2.844e-01  linmin: -2.798e-05  t[s]:   3186.70
	FillingsUpdate:  mu: -0.047723134  nElectrons: 704.000000  magneticMoment: [ Abs: 0.06103  Tot: -0.06009 ]
	SubspaceRotationAdjust: set factor to 0.378
ElecMinimize: Iter:   4  G: -1785.428471437997814  |grad|_K:  5.848e-06  alpha:  6.513e-01  linmin:  8.852e-05  t[s]:   3343.82
	FillingsUpdate:  mu: -0.042854680  nElectrons: 704.000000  magneticMoment: [ Abs: 0.05039  Tot: -0.04897 ]
	SubspaceRotationAdjust: set factor to 0.395
ElecMinimize: Iter:   5  G: -1785.441613586407584  |grad|_K:  4.039e-06  alpha:  7.210e-01  linmin:  3.300e-05  t[s]:   3499.98
	FillingsUpdate:  mu: -0.049141489  nElectrons: 704.000000  magneticMoment: [ Abs: 0.04167  Tot: -0.03539 ]
	SubspaceRotationAdjust: set factor to 0.379
ElecMinimize: Iter:   6  G: -1785.446966682509810  |grad|_K:  2.570e-06  alpha:  6.046e-01  linmin:  5.378e-06  t[s]:   3656.22
	FillingsUpdate:  mu: -0.047198382  nElectrons: 704.000000  magneticMoment: [ Abs: 0.03218  Tot: -0.02101 ]
	SubspaceRotationAdjust: set factor to 0.5
ElecMinimize: Iter:   7  G: -1785.449527569057409  |grad|_K:  1.587e-06  alpha:  7.103e-01  linmin:  2.167e-05  t[s]:   3812.18
	FillingsUpdate:  mu: -0.046277393  nElectrons: 704.000000  magneticMoment: [ Abs: 0.02289  Tot: -0.01035 ]
	SubspaceRotationAdjust: set factor to 0.603
ElecMinimize: Iter:   8  G: -1785.450582549440924  |grad|_K:  1.139e-06  alpha:  7.709e-01  linmin:  1.161e-05  t[s]:   3968.59
	FillingsUpdate:  mu: -0.048030150  nElectrons: 704.000000  magneticMoment: [ Abs: 0.01624  Tot: -0.00442 ]
	SubspaceRotationAdjust: set factor to 0.54
ElecMinimize: Iter:   9  G: -1785.450970974708753  |grad|_K:  7.780e-07  alpha:  5.485e-01  linmin:  6.734e-07  t[s]:   4124.09
	FillingsUpdate:  mu: -0.046828229  nElectrons: 704.000000  magneticMoment: [ Abs: 0.01128  Tot: -0.00144 ]
	SubspaceRotationAdjust: set factor to 0.404
ElecMinimize: Iter:  10  G: -1785.451117871632732  |grad|_K:  5.161e-07  alpha:  4.426e-01  linmin:  9.751e-07  t[s]:   4278.74
	FillingsUpdate:  mu: -0.047264488  nElectrons: 704.000000  magneticMoment: [ Abs: 0.00617  Tot: +0.00051 ]
	SubspaceRotationAdjust: set factor to 0.425
ElecMinimize: Iter:  11  G: -1785.451205106900034  |grad|_K:  2.817e-07  alpha:  5.994e-01  linmin:  2.043e-06  t[s]:   4433.92
	FillingsUpdate:  mu: -0.047377464  nElectrons: 704.000000  magneticMoment: [ Abs: 0.00321  Tot: +0.00098 ]
	SubspaceRotationAdjust: set factor to 0.515
ElecMinimize: Iter:  12  G: -1785.451235981929358  |grad|_K:  2.098e-07  alpha:  7.129e-01  linmin:  9.499e-07  t[s]:   4589.11
	FillingsUpdate:  mu: -0.047163278  nElectrons: 704.000000  magneticMoment: [ Abs: 0.00141  Tot: +0.00094 ]
	SubspaceRotationAdjust: set factor to 0.602
ElecMinimize: Iter:  13  G: -1785.451250996365843  |grad|_K:  1.600e-07  alpha:  6.233e-01  linmin:  6.184e-07  t[s]:   4744.25
	FillingsUpdate:  mu: -0.047330815  nElectrons: 704.000000  magneticMoment: [ Abs: 0.00079  Tot: +0.00065 ]
	SubspaceRotationAdjust: set factor to 0.686
ElecMinimize: Iter:  14  G: -1785.451259866902546  |grad|_K:  1.106e-07  alpha:  6.339e-01  linmin:  2.029e-06  t[s]:   4899.95
	FillingsUpdate:  mu: -0.047205428  nElectrons: 704.000000  magneticMoment: [ Abs: 0.00092  Tot: +0.00037 ]
	SubspaceRotationAdjust: set factor to 0.7
ElecMinimize: Iter:  15  G: -1785.451263372260200  |grad|_K:  7.749e-08  alpha:  5.256e-01  linmin:  3.703e-07  t[s]:   5054.85
	FillingsUpdate:  mu: -0.047289477  nElectrons: 704.000000  magneticMoment: [ Abs: 0.00092  Tot: +0.00016 ]
	SubspaceRotationAdjust: set factor to 0.614
ElecMinimize: Iter:  16  G: -1785.451265023011047  |grad|_K:  5.143e-08  alpha:  5.025e-01  linmin:  3.879e-07  t[s]:   5211.21
	FillingsUpdate:  mu: -0.047220757  nElectrons: 704.000000  magneticMoment: [ Abs: 0.00075  Tot: +0.00004 ]
	SubspaceRotationAdjust: set factor to 0.53
ElecMinimize: Iter:  17  G: -1785.451265744021839  |grad|_K:  3.984e-08  alpha:  4.987e-01  linmin:  9.720e-08  t[s]:   5367.13
	FillingsUpdate:  mu: -0.047263834  nElectrons: 704.000000  magneticMoment: [ Abs: 0.00049  Tot: -0.00003 ]
	SubspaceRotationAdjust: set factor to 0.561
ElecMinimize: Iter:  18  G: -1785.451266191378636  |grad|_K:  2.729e-08  alpha:  5.149e-01  linmin:  1.169e-07  t[s]:   5522.25
	FillingsUpdate:  mu: -0.047248281  nElectrons: 704.000000  magneticMoment: [ Abs: 0.00025  Tot: -0.00006 ]
	SubspaceRotationAdjust: set factor to 0.733
ElecMinimize: Iter:  19  G: -1785.451266453344033  |grad|_K:  1.979e-08  alpha:  6.433e-01  linmin:  1.961e-07  t[s]:   5677.99
	FillingsUpdate:  mu: -0.047243413  nElectrons: 704.000000  magneticMoment: [ Abs: 0.00010  Tot: -0.00005 ]
	SubspaceRotationAdjust: set factor to 0.923
ElecMinimize: Iter:  20  G: -1785.451266589906709  |grad|_K:  1.448e-08  alpha:  6.378e-01  linmin:  1.387e-07  t[s]:   5833.32
	FillingsUpdate:  mu: -0.047263158  nElectrons: 704.000000  magneticMoment: [ Abs: 0.00007  Tot: -0.00003 ]
	SubspaceRotationAdjust: set factor to 0.861
ElecMinimize: Iter:  21  G: -1785.451266643928648  |grad|_K:  1.240e-08  alpha:  4.710e-01  linmin:  5.330e-09  t[s]:   5989.93
	FillingsUpdate:  mu: -0.047245504  nElectrons: 704.000000  magneticMoment: [ Abs: 0.00007  Tot: -0.00002 ]
	SubspaceRotationAdjust: set factor to 0.629
ElecMinimize: Iter:  22  G: -1785.451266669320148  |grad|_K:  8.486e-09  alpha:  3.009e-01  linmin:  1.558e-09  t[s]:   6146.06
	FillingsUpdate:  mu: -0.047252323  nElectrons: 704.000000  magneticMoment: [ Abs: 0.00007  Tot: -0.00000 ]
	SubspaceRotationAdjust: set factor to 0.643
ElecMinimize: Iter:  23  G: -1785.451266686843383  |grad|_K:  5.520e-09  alpha:  4.433e-01  linmin: -6.760e-08  t[s]:   6301.76
	FillingsUpdate:  mu: -0.047252713  nElectrons: 704.000000  magneticMoment: [ Abs: 0.00005  Tot: +0.00000 ]
	SubspaceRotationAdjust: set factor to 0.816
ElecMinimize: Iter:  24  G: -1785.451266698220024  |grad|_K:  4.113e-09  alpha:  6.823e-01  linmin:  1.139e-07  t[s]:   6457.54
	FillingsUpdate:  mu: -0.047249117  nElectrons: 704.000000  magneticMoment: [ Abs: 0.00004  Tot: +0.00001 ]
	SubspaceRotationAdjust: set factor to 0.931
ElecMinimize: Iter:  25  G: -1785.451266703613783  |grad|_K:  3.633e-09  alpha:  5.839e-01  linmin:  1.974e-08  t[s]:   6612.52
	FillingsUpdate:  mu: -0.047253853  nElectrons: 704.000000  magneticMoment: [ Abs: 0.00002  Tot: +0.00000 ]
	SubspaceRotationAdjust: set factor to 0.831
ElecMinimize: Iter:  26  G: -1785.451266706468004  |grad|_K:  2.903e-09  alpha:  3.922e-01  linmin: -5.872e-08  t[s]:   6768.42
ElecMinimize: Converged (|Delta G|<1.000000e-08 for 2 iters).
Setting wave functions to eigenvectors of Hamiltonian
Vacuum energy after initial minimize, F = -1785.451266706468004

Shifting auxilliary hamiltonian by -0.123998 to set nElectrons=704.000000
	Linear fluid (dielectric constant: 78.4, screening length: 5.74355 Bohr) occupying 0.699817 of unit cell:	Completed after 17 iterations at t[s]:   6797.39

-------- Electronic minimization -----------
	Linear fluid (dielectric constant: 78.4, screening length: 5.74355 Bohr) occupying 0.699817 of unit cell:	Completed after 0 iterations at t[s]:   6829.73
	FillingsUpdate:  mu: -0.171251800  nElectrons: 704.000000  magneticMoment: [ Abs: 0.00001  Tot: +0.00000 ]
ElecMinimize: Iter:   0  G: -1785.440843975120742  |grad|_K:  5.113e-06  alpha:  1.000e+00
	Linear fluid (dielectric constant: 78.4, screening length: 5.74355 Bohr) occupying 0.700521 of unit cell:	Completed after 16 iterations at t[s]:   6957.91
	Linear fluid (dielectric constant: 78.4, screening length: 5.74355 Bohr) occupying 0.699851 of unit cell:	Completed after 16 iterations at t[s]:   7012.14
	FillingsUpdate:  mu: -0.171251800  nElectrons: 703.815719  magneticMoment: [ Abs: 0.00001  Tot: +0.00000 ]
	SubspaceRotationAdjust: set factor to 0.435
ElecMinimize: Iter:   1  G: -1785.441392020564308  |grad|_K:  2.684e-06  alpha:  4.502e-02  linmin:  5.027e-03  t[s]:   7082.29
	Linear fluid (dielectric constant: 78.4, screening length: 5.74355 Bohr) occupying 0.699912 of unit cell:	Completed after 7 iterations at t[s]:   7134.87
ElecMinimize: 	Predicted alpha/alphaT>3.000000, increasing alphaT to 1.350487e-01.
	Linear fluid (dielectric constant: 78.4, screening length: 5.74355 Bohr) occupying 0.700033 of unit cell:	Completed after 11 iterations at t[s]:   7185.37
	Linear fluid (dielectric constant: 78.4, screening length: 5.74355 Bohr) occupying 0.700232 of unit cell:	Completed after 11 iterations at t[s]:   7237.74
	FillingsUpdate:  mu: -0.171251800  nElectrons: 703.711808  magneticMoment: [ Abs: 0.00002  Tot: +0.00000 ]
	SubspaceRotationAdjust: set factor to 0.234
ElecMinimize: Iter:   2  G: -1785.442350355655435  |grad|_K:  2.215e-06  alpha:  2.842e-01  linmin: -3.007e-05  t[s]:   7306.08
	Linear fluid (dielectric constant: 78.4, screening length: 5.74355 Bohr) occupying 0.700587 of unit cell:	Completed after 12 iterations at t[s]:   7358.24
	Linear fluid (dielectric constant: 78.4, screening length: 5.74355 Bohr) occupying 0.700379 of unit cell:	Completed after 11 iterations at t[s]:   7411.27
	FillingsUpdate:  mu: -0.171251800  nElectrons: 703.552570  magneticMoment: [ Abs: 0.00002  Tot: +0.00000 ]
	SubspaceRotationAdjust: set factor to 0.112
	SubspaceRotationAdjust: resetting CG because factor has changed by 0.134368
	Linear fluid (dielectric constant: 78.4, screening length: 5.74355 Bohr) occupying 0.700379 of unit cell:	Completed after 0 iterations at t[s]:   7501.35
ElecMinimize: 	State modified externally: resetting search direction.
ElecMinimize: Iter:   3  G: -1785.442660563629943  |grad|_K:  8.292e-07  alpha:  1.164e-01
	Linear fluid (dielectric constant: 78.4, screening length: 5.74355 Bohr) occupying 0.700403 of unit cell:	Completed after 8 iterations at t[s]:   7618.25
ElecMinimize: 	Predicted alpha/alphaT>3.000000, increasing alphaT to 3.491052e-01.
	Linear fluid (dielectric constant: 78.4, screening length: 5.74355 Bohr) occupying 0.700450 of unit cell:	Completed after 9 iterations at t[s]:   7668.84
	Linear fluid (dielectric constant: 78.4, screening length: 5.74355 Bohr) occupying 0.700504 of unit cell:	Completed after 9 iterations at t[s]:   7720.26
	FillingsUpdate:  mu: -0.171251800  nElectrons: 703.623569  magneticMoment: [ Abs: 0.00001  Tot: +0.00000 ]
	SubspaceRotationAdjust: set factor to 0.0698
ElecMinimize: Iter:   4  G: -1785.442889912648980  |grad|_K:  8.071e-07  alpha:  6.086e-01  linmin: -2.720e-05  t[s]:   7789.76
	Linear fluid (dielectric constant: 78.4, screening length: 5.74355 Bohr) occupying 0.700717 of unit cell:	Completed after 11 iterations at t[s]:   7842.79
	Linear fluid (dielectric constant: 78.4, screening length: 5.74355 Bohr) occupying 0.700717 of unit cell:	Completed after 0 iterations at t[s]:   7894.48
	FillingsUpdate:  mu: -0.171251800  nElectrons: 703.575854  magneticMoment: [ Abs: 0.00004  Tot: +0.00000 ]
	SubspaceRotationAdjust: set factor to 0.0847
ElecMinimize: Iter:   5  G: -1785.443107513589666  |grad|_K:  3.893e-07  alpha:  6.093e-01  linmin: -1.998e-04  t[s]:   7959.46
	Linear fluid (dielectric constant: 78.4, screening length: 5.74355 Bohr) occupying 0.700804 of unit cell:	Completed after 2 iterations at t[s]:   8011.68
	Linear fluid (dielectric constant: 78.4, screening length: 5.74355 Bohr) occupying 0.700921 of unit cell:	Completed after 2 iterations at t[s]:   8059.81
	FillingsUpdate:  mu: -0.171251800  nElectrons: 703.536543  magneticMoment: [ Abs: 0.00009  Tot: +0.00000 ]
	SubspaceRotationAdjust: set factor to 0.112
ElecMinimize: Iter:   6  G: -1785.443227549444600  |grad|_K:  3.735e-07  alpha:  1.431e+00  linmin: -1.365e-05  t[s]:   8125.69
	Linear fluid (dielectric constant: 78.4, screening length: 5.74355 Bohr) occupying 0.701118 of unit cell:	Completed after 6 iterations at t[s]:   8178.73
	Linear fluid (dielectric constant: 78.4, screening length: 5.74355 Bohr) occupying 0.701083 of unit cell:	Completed after 2 iterations at t[s]:   8228.12
	FillingsUpdate:  mu: -0.171251800  nElectrons: 703.503753  magneticMoment: [ Abs: 0.00013  Tot: +0.00000 ]
	SubspaceRotationAdjust: set factor to 0.133
ElecMinimize: Iter:   7  G: -1785.443317304702759  |grad|_K:  3.578e-07  alpha:  1.174e+00  linmin: -5.968e-06  t[s]:   8293.55
	Linear fluid (dielectric constant: 78.4, screening length: 5.74355 Bohr) occupying 0.701222 of unit cell:	Completed after 7 iterations at t[s]:   8346.13
	Linear fluid (dielectric constant: 78.4, screening length: 5.74355 Bohr) occupying 0.701209 of unit cell:	Completed after 0 iterations at t[s]:   8395.87
	FillingsUpdate:  mu: -0.171251800  nElectrons: 703.446830  magneticMoment: [ Abs: 0.00016  Tot: +0.00000 ]
	SubspaceRotationAdjust: set factor to 0.128
ElecMinimize: Iter:   8  G: -1785.443391622450918  |grad|_K:  3.806e-07  alpha:  1.057e+00  linmin:  4.717e-05  t[s]:   8460.79
	Linear fluid (dielectric constant: 78.4, screening length: 5.74355 Bohr) occupying 0.701351 of unit cell:	Completed after 11 iterations at t[s]:   8514.31
	Linear fluid (dielectric constant: 78.4, screening length: 5.74355 Bohr) occupying 0.701270 of unit cell:	Completed after 10 iterations at t[s]:   8566.52
	FillingsUpdate:  mu: -0.171251800  nElectrons: 703.451484  magneticMoment: [ Abs: 0.00015  Tot: +0.00000 ]
	SubspaceRotationAdjust: set factor to 0.0887
ElecMinimize: Iter:   9  G: -1785.443425279016310  |grad|_K:  3.188e-07  alpha:  4.541e-01  linmin:  1.540e-05  t[s]:   8635.90
	Linear fluid (dielectric constant: 78.4, screening length: 5.74355 Bohr) occupying 0.701315 of unit cell:	Completed after 7 iterations at t[s]:   8688.67
	Linear fluid (dielectric constant: 78.4, screening length: 5.74355 Bohr) occupying 0.701336 of unit cell:	Completed after 3 iterations at t[s]:   8738.44
	FillingsUpdate:  mu: -0.171251800  nElectrons: 703.419968  magneticMoment: [ Abs: 0.00011  Tot: +0.00000 ]
	SubspaceRotationAdjust: set factor to 0.0878
ElecMinimize: Iter:  10  G: -1785.443462076984360  |grad|_K:  2.102e-07  alpha:  6.646e-01  linmin: -1.678e-05  t[s]:   8804.41
	Linear fluid (dielectric constant: 78.4, screening length: 5.74355 Bohr) occupying 0.701368 of unit cell:	Completed after 6 iterations at t[s]:   8856.75
	Linear fluid (dielectric constant: 78.4, screening length: 5.74355 Bohr) occupying 0.701364 of unit cell:	Completed after 0 iterations at t[s]:   8905.77
	FillingsUpdate:  mu: -0.171251800  nElectrons: 703.410690  magneticMoment: [ Abs: 0.00008  Tot: +0.00000 ]
	SubspaceRotationAdjust: set factor to 0.0892
ElecMinimize: Iter:  11  G: -1785.443475968056646  |grad|_K:  1.625e-07  alpha:  5.696e-01  linmin: -1.005e-05  t[s]:   8970.30
	Linear fluid (dielectric constant: 78.4, screening length: 5.74355 Bohr) occupying 0.701383 of unit cell:	Completed after 7 iterations at t[s]:   9023.01
	Linear fluid (dielectric constant: 78.4, screening length: 5.74355 Bohr) occupying 0.701379 of unit cell:	Completed after 0 iterations at t[s]:   9072.72
	FillingsUpdate:  mu: -0.171251800  nElectrons: 703.419029  magneticMoment: [ Abs: 0.00006  Tot: +0.00000 ]
	SubspaceRotationAdjust: set factor to 0.0605
ElecMinimize: Iter:  12  G: -1785.443482618333519  |grad|_K:  1.194e-07  alpha:  4.534e-01  linmin:  9.863e-05  t[s]:   9137.45
	Linear fluid (dielectric constant: 78.4, screening length: 5.74355 Bohr) occupying 0.701388 of unit cell:	Completed after 3 iterations at t[s]:   9190.26
	Linear fluid (dielectric constant: 78.4, screening length: 5.74355 Bohr) occupying 0.701387 of unit cell:	Completed after 0 iterations at t[s]:   9238.57
	FillingsUpdate:  mu: -0.171251800  nElectrons: 703.417936  magneticMoment: [ Abs: 0.00005  Tot: +0.00000 ]
	SubspaceRotationAdjust: set factor to 0.0833
ElecMinimize: Iter:  13  G: -1785.443485666764900  |grad|_K:  6.301e-08  alpha:  4.286e-01  linmin: -1.171e-04  t[s]:   9304.58
	Linear fluid (dielectric constant: 78.4, screening length: 5.74355 Bohr) occupying 0.701389 of unit cell:	Completed after 0 iterations at t[s]:   9356.54
	Linear fluid (dielectric constant: 78.4, screening length: 5.74355 Bohr) occupying 0.701389 of unit cell:	Completed after 0 iterations at t[s]:   9402.45
	FillingsUpdate:  mu: -0.171251800  nElectrons: 703.416307  magneticMoment: [ Abs: 0.00004  Tot: +0.00000 ]
	SubspaceRotationAdjust: set factor to 0.0956
ElecMinimize: Iter:  14  G: -1785.443487308622025  |grad|_K:  4.994e-08  alpha:  6.935e-01  linmin:  5.202e-08  t[s]:   9467.46
	Linear fluid (dielectric constant: 78.4, screening length: 5.74355 Bohr) occupying 0.701388 of unit cell:	Completed after 6 iterations at t[s]:   9519.83
	Linear fluid (dielectric constant: 78.4, screening length: 5.74355 Bohr) occupying 0.701389 of unit cell:	Completed after 2 iterations at t[s]:   9569.28
ElecMinimize: 	Step increased G by 3.639238e-07, reducing alpha to 2.200029e-02.
	Linear fluid (dielectric constant: 78.4, screening length: 5.74355 Bohr) occupying 0.701389 of unit cell:	Completed after 0 iterations at t[s]:   9672.39
ElecMinimize: 	Step increased G by 3.430471e-07, reducing alpha to 2.200029e-03.
	Linear fluid (dielectric constant: 78.4, screening length: 5.74355 Bohr) occupying 0.701389 of unit cell:	Completed after 0 iterations at t[s]:   9774.02
ElecMinimize: 	Step increased G by 3.493501e-07, reducing alpha to 2.200029e-04.
ElecMinimize: 	Step failed to reduce G after 3 attempts. Quitting step.
ElecMinimize: 	Undoing step.
	Linear fluid (dielectric constant: 78.4, screening length: 5.74355 Bohr) occupying 0.701389 of unit cell:	Completed after 0 iterations at t[s]:   9874.92
ElecMinimize: 	Step failed: resetting search direction.
	FillingsUpdate:  mu: -0.171251800  nElectrons: 703.416299  magneticMoment: [ Abs: 0.00004  Tot: +0.00000 ]
	SubspaceRotationAdjust: set factor to 0.0698
ElecMinimize: Iter:  15  G: -1785.443486959199390  |grad|_K:  9.002e-08  alpha:  2.200e-04
	Linear fluid (dielectric constant: 78.4, screening length: 5.74355 Bohr) occupying 0.701387 of unit cell:	Completed after 8 iterations at t[s]:   9991.22
	Linear fluid (dielectric constant: 78.4, screening length: 5.74355 Bohr) occupying 0.701389 of unit cell:	Completed after 7 iterations at t[s]:  10041.77
	FillingsUpdate:  mu: -0.171251800  nElectrons: 703.420919  magneticMoment: [ Abs: 0.00004  Tot: +0.00000 ]
	SubspaceRotationAdjust: set factor to 0.0315
ElecMinimize: Iter:  16  G: -1785.443487440589934  |grad|_K:  3.477e-08  alpha:  2.356e-01  linmin:  5.518e-04  t[s]:  10108.90
	Linear fluid (dielectric constant: 78.4, screening length: 5.74355 Bohr) occupying 0.701388 of unit cell:	Completed after 0 iterations at t[s]:  10160.17
ElecMinimize: 	Predicted alpha/alphaT>3.000000, increasing alphaT to 7.067584e-01.
	Linear fluid (dielectric constant: 78.4, screening length: 5.74355 Bohr) occupying 0.701386 of unit cell:	Completed after 0 iterations at t[s]:  10206.36
	Linear fluid (dielectric constant: 78.4, screening length: 5.74355 Bohr) occupying 0.701386 of unit cell:	Completed after 0 iterations at t[s]:  10252.88
	FillingsUpdate:  mu: -0.171251800  nElectrons: 703.420069  magneticMoment: [ Abs: 0.00004  Tot: +0.00000 ]
	SubspaceRotationAdjust: set factor to 0.047
ElecMinimize: Iter:  17  G: -1785.443487996366457  |grad|_K:  3.872e-08  alpha:  9.437e-01  linmin:  5.256e-08  t[s]:  10317.86
	Linear fluid (dielectric constant: 78.4, screening length: 5.74355 Bohr) occupying 0.701382 of unit cell:	Completed after 5 iterations at t[s]:  10370.08
	Linear fluid (dielectric constant: 78.4, screening length: 5.74355 Bohr) occupying 0.701384 of unit cell:	Completed after 3 iterations at t[s]:  10418.92
ElecMinimize: 	Step increased G by 4.984213e-08, reducing alpha to 3.382369e-02.
	Linear fluid (dielectric constant: 78.4, screening length: 5.74355 Bohr) occupying 0.701386 of unit cell:	Completed after 0 iterations at t[s]:  10522.30
ElecMinimize: 	Step increased G by 2.798470e-08, reducing alpha to 3.382369e-03.
	Linear fluid (dielectric constant: 78.4, screening length: 5.74355 Bohr) occupying 0.701386 of unit cell:	Completed after 0 iterations at t[s]:  10623.51
ElecMinimize: 	Step increased G by 3.413584e-08, reducing alpha to 3.382369e-04.
ElecMinimize: 	Step failed to reduce G after 3 attempts. Quitting step.
ElecMinimize: 	Undoing step.
	Linear fluid (dielectric constant: 78.4, screening length: 5.74355 Bohr) occupying 0.701386 of unit cell:	Completed after 0 iterations at t[s]:  10724.85
ElecMinimize: 	Step failed: resetting search direction.
	FillingsUpdate:  mu: -0.171251800  nElectrons: 703.420060  magneticMoment: [ Abs: 0.00004  Tot: +0.00000 ]
	SubspaceRotationAdjust: set factor to 0.0422
ElecMinimize: Iter:  18  G: -1785.443487962151494  |grad|_K:  4.577e-08  alpha:  3.382e-04
	Linear fluid (dielectric constant: 78.4, screening length: 5.74355 Bohr) occupying 0.701384 of unit cell:	Completed after 4 iterations at t[s]:  10841.72
	Linear fluid (dielectric constant: 78.4, screening length: 5.74355 Bohr) occupying 0.701385 of unit cell:	Completed after 2 iterations at t[s]:  10890.20
	FillingsUpdate:  mu: -0.171251800  nElectrons: 703.421643  magneticMoment: [ Abs: 0.00003  Tot: +0.00000 ]
	SubspaceRotationAdjust: set factor to 0.0251
ElecMinimize: Iter:  19  G: -1785.443488059304400  |grad|_K:  2.387e-08  alpha:  3.214e-01  linmin:  9.910e-04  t[s]:  10956.21
	Linear fluid (dielectric constant: 78.4, screening length: 5.74355 Bohr) occupying 0.701385 of unit cell:	Completed after 0 iterations at t[s]:  11007.72
ElecMinimize: 	Predicted alpha/alphaT>3.000000, increasing alphaT to 9.640912e-01.
	Linear fluid (dielectric constant: 78.4, screening length: 5.74355 Bohr) occupying 0.701385 of unit cell:	Completed after 0 iterations at t[s]:  11053.84
	Linear fluid (dielectric constant: 78.4, screening length: 5.74355 Bohr) occupying 0.701384 of unit cell:	Completed after 3 iterations at t[s]:  11100.75
	FillingsUpdate:  mu: -0.171251800  nElectrons: 703.420461  magneticMoment: [ Abs: 0.00003  Tot: +0.00000 ]
	SubspaceRotationAdjust: set factor to 0.0256
ElecMinimize: Iter:  20  G: -1785.443488073867684  |grad|_K:  3.589e-08  alpha:  1.252e+00  linmin:  1.888e-04  t[s]:  11166.90
	Linear fluid (dielectric constant: 78.4, screening length: 5.74355 Bohr) occupying 0.701381 of unit cell:	Completed after 3 iterations at t[s]:  11219.00
	Linear fluid (dielectric constant: 78.4, screening length: 5.74355 Bohr) occupying 0.701383 of unit cell:	Completed after 3 iterations at t[s]:  11266.99
ElecMinimize: 	Step increased G by 4.411049e-11, reducing alpha to 3.099644e-02.
	Linear fluid (dielectric constant: 78.4, screening length: 5.74355 Bohr) occupying 0.701384 of unit cell:	Completed after 0 iterations at t[s]:  11369.82
	FillingsUpdate:  mu: -0.171251800  nElectrons: 703.420411  magneticMoment: [ Abs: 0.00003  Tot: +0.00000 ]
	SubspaceRotationAdjust: set factor to 0.0268
ElecMinimize: Iter:  21  G: -1785.443488111334318  |grad|_K:  4.255e-08  alpha:  3.100e-02  linmin:  2.014e-06  t[s]:  11434.70
	Linear fluid (dielectric constant: 78.4, screening length: 5.74355 Bohr) occupying 0.701384 of unit cell:	Completed after 0 iterations at t[s]:  11485.79
ElecMinimize: 	Predicted alpha/alphaT>3.000000, increasing alphaT to 9.298933e-02.
	Linear fluid (dielectric constant: 78.4, screening length: 5.74355 Bohr) occupying 0.701384 of unit cell:	Completed after 0 iterations at t[s]:  11531.80
	Linear fluid (dielectric constant: 78.4, screening length: 5.74355 Bohr) occupying 0.701383 of unit cell:	Completed after 0 iterations at t[s]:  11578.24
	FillingsUpdate:  mu: -0.171251800  nElectrons: 703.420553  magneticMoment: [ Abs: 0.00003  Tot: +0.00000 ]
	SubspaceRotationAdjust: set factor to 0.0248
ElecMinimize: Iter:  22  G: -1785.443488346789081  |grad|_K:  2.964e-08  alpha:  2.390e-01  linmin: -9.265e-08  t[s]:  11643.11
	Linear fluid (dielectric constant: 78.4, screening length: 5.74355 Bohr) occupying 0.701382 of unit cell:	Completed after 0 iterations at t[s]:  11694.90
	Linear fluid (dielectric constant: 78.4, screening length: 5.74355 Bohr) occupying 0.701381 of unit cell:	Completed after 0 iterations at t[s]:  11741.16
	FillingsUpdate:  mu: -0.171251800  nElectrons: 703.422077  magneticMoment: [ Abs: 0.00003  Tot: +0.00000 ]
	SubspaceRotationAdjust: set factor to 0.0345
ElecMinimize: Iter:  23  G: -1785.443488569641659  |grad|_K:  3.669e-08  alpha:  4.628e-01  linmin: -4.009e-08  t[s]:  11805.69
	Linear fluid (dielectric constant: 78.4, screening length: 5.74355 Bohr) occupying 0.701377 of unit cell:	Completed after 4 iterations at t[s]:  11857.72
	Linear fluid (dielectric constant: 78.4, screening length: 5.74355 Bohr) occupying 0.701380 of unit cell:	Completed after 0 iterations at t[s]:  11905.77
ElecMinimize: 	Step increased G by 3.015020e-08, reducing alpha to 1.219098e-02.
	Linear fluid (dielectric constant: 78.4, screening length: 5.74355 Bohr) occupying 0.701381 of unit cell:	Completed after 2 iterations at t[s]:  12007.89
ElecMinimize: 	Step increased G by 1.965259e-07, reducing alpha to 1.219098e-03.
	Linear fluid (dielectric constant: 78.4, screening length: 5.74355 Bohr) occupying 0.701381 of unit cell:	Completed after 0 iterations at t[s]:  12110.28
ElecMinimize: 	Step increased G by 1.957874e-07, reducing alpha to 1.219098e-04.
ElecMinimize: 	Step failed to reduce G after 3 attempts. Quitting step.
ElecMinimize: 	Undoing step.
	Linear fluid (dielectric constant: 78.4, screening length: 5.74355 Bohr) occupying 0.701381 of unit cell:	Completed after 0 iterations at t[s]:  12211.86
ElecMinimize: 	Step failed: resetting search direction.
	FillingsUpdate:  mu: -0.171251800  nElectrons: 703.422085  magneticMoment: [ Abs: 0.00003  Tot: +0.00000 ]
	SubspaceRotationAdjust: set factor to 0.0349
ElecMinimize: Iter:  24  G: -1785.443488373836999  |grad|_K:  3.148e-08  alpha:  1.219e-04
	Linear fluid (dielectric constant: 78.4, screening length: 5.74355 Bohr) occupying 0.701381 of unit cell:	Completed after 0 iterations at t[s]:  12328.02
	Linear fluid (dielectric constant: 78.4, screening length: 5.74355 Bohr) occupying 0.701381 of unit cell:	Completed after 0 iterations at t[s]:  12374.54
	FillingsUpdate:  mu: -0.171251800  nElectrons: 703.422150  magneticMoment: [ Abs: 0.00003  Tot: +0.00000 ]
	SubspaceRotationAdjust: set factor to 0.0459
ElecMinimize: Iter:  25  G: -1785.443488576127720  |grad|_K:  1.065e-08  alpha:  3.725e-01  linmin:  2.220e-07  t[s]:  12438.80
	Linear fluid (dielectric constant: 78.4, screening length: 5.74355 Bohr) occupying 0.701381 of unit cell:	Completed after 0 iterations at t[s]:  12489.90
	Linear fluid (dielectric constant: 78.4, screening length: 5.74355 Bohr) occupying 0.701381 of unit cell:	Completed after 0 iterations at t[s]:  12536.59
	FillingsUpdate:  mu: -0.171251800  nElectrons: 703.422344  magneticMoment: [ Abs: 0.00003  Tot: +0.00000 ]
	SubspaceRotationAdjust: set factor to 0.0596
ElecMinimize: Iter:  26  G: -1785.443488639541556  |grad|_K:  1.247e-08  alpha:  1.019e+00  linmin: -1.098e-06  t[s]:  12601.50
	Linear fluid (dielectric constant: 78.4, screening length: 5.74355 Bohr) occupying 0.701381 of unit cell:	Completed after 3 iterations at t[s]:  12652.74
	Linear fluid (dielectric constant: 78.4, screening length: 5.74355 Bohr) occupying 0.701381 of unit cell:	Completed after 0 iterations at t[s]:  12700.50
ElecMinimize: 	Step increased G by 7.672043e-08, reducing alpha to 2.622540e-02.
	Linear fluid (dielectric constant: 78.4, screening length: 5.74355 Bohr) occupying 0.701381 of unit cell:	Completed after 0 iterations at t[s]:  12801.79
ElecMinimize: 	Step increased G by 6.411256e-08, reducing alpha to 2.622540e-03.
	Linear fluid (dielectric constant: 78.4, screening length: 5.74355 Bohr) occupying 0.701381 of unit cell:	Completed after 0 iterations at t[s]:  12903.84
ElecMinimize: 	Step increased G by 6.321170e-08, reducing alpha to 2.622540e-04.
ElecMinimize: 	Step failed to reduce G after 3 attempts. Quitting step.
ElecMinimize: 	Undoing step.
	Linear fluid (dielectric constant: 78.4, screening length: 5.74355 Bohr) occupying 0.701381 of unit cell:	Completed after 0 iterations at t[s]:  13005.57
ElecMinimize: 	Step failed: resetting search direction.
	FillingsUpdate:  mu: -0.171251800  nElectrons: 703.422345  magneticMoment: [ Abs: 0.00003  Tot: +0.00000 ]
	SubspaceRotationAdjust: set factor to 0.061
ElecMinimize: Iter:  27  G: -1785.443488576350546  |grad|_K:  2.303e-08  alpha:  2.623e-04
	Linear fluid (dielectric constant: 78.4, screening length: 5.74355 Bohr) occupying 0.701380 of unit cell:	Completed after 2 iterations at t[s]:  13121.50
	Linear fluid (dielectric constant: 78.4, screening length: 5.74355 Bohr) occupying 0.701380 of unit cell:	Completed after 0 iterations at t[s]:  13169.10
	FillingsUpdate:  mu: -0.171251800  nElectrons: 703.423466  magneticMoment: [ Abs: 0.00002  Tot: +0.00000 ]
	SubspaceRotationAdjust: set factor to 0.0452
ElecMinimize: Iter:  28  G: -1785.443488702518152  |grad|_K:  1.620e-08  alpha:  3.992e-01  linmin:  5.674e-04  t[s]:  13234.24
	Linear fluid (dielectric constant: 78.4, screening length: 5.74355 Bohr) occupying 0.701380 of unit cell:	Completed after 0 iterations at t[s]:  13286.08
ElecMinimize: 	Predicted alpha/alphaT>3.000000, increasing alphaT to 1.197519e+00.
	Linear fluid (dielectric constant: 78.4, screening length: 5.74355 Bohr) occupying 0.701380 of unit cell:	Completed after 0 iterations at t[s]:  13332.23
ElecMinimize: 	Predicted alpha/alphaT>3.000000, increasing alphaT to 3.592557e+00.
	Linear fluid (dielectric constant: 78.4, screening length: 5.74355 Bohr) occupying 0.701378 of unit cell:	Completed after 3 iterations at t[s]:  13378.90
	Linear fluid (dielectric constant: 78.4, screening length: 5.74355 Bohr) occupying 0.701380 of unit cell:	Completed after 0 iterations at t[s]:  13426.45
	FillingsUpdate:  mu: -0.171251800  nElectrons: 703.423656  magneticMoment: [ Abs: 0.00002  Tot: +0.00000 ]
	SubspaceRotationAdjust: set factor to 0.0355
ElecMinimize: Iter:  29  G: -1785.443488764167796  |grad|_K:  2.026e-08  alpha:  1.366e+00  linmin:  5.785e-05  t[s]:  13491.72
	Linear fluid (dielectric constant: 78.4, screening length: 5.74355 Bohr) occupying 0.701376 of unit cell:	Completed after 2 iterations at t[s]:  13543.49
	Linear fluid (dielectric constant: 78.4, screening length: 5.74355 Bohr) occupying 0.701378 of unit cell:	Completed after 0 iterations at t[s]:  13591.32
	FillingsUpdate:  mu: -0.171251800  nElectrons: 703.425039  magneticMoment: [ Abs: 0.00002  Tot: +0.00000 ]
	SubspaceRotationAdjust: set factor to 0.0259
ElecMinimize: Iter:  30  G: -1785.443488797122427  |grad|_K:  1.044e-08  alpha:  6.249e-01  linmin:  1.445e-05  t[s]:  13655.88
	Linear fluid (dielectric constant: 78.4, screening length: 5.74355 Bohr) occupying 0.701378 of unit cell:	Completed after 0 iterations at t[s]:  13707.36
	Linear fluid (dielectric constant: 78.4, screening length: 5.74355 Bohr) occupying 0.701378 of unit cell:	Completed after 0 iterations at t[s]:  13753.88
	FillingsUpdate:  mu: -0.171251800  nElectrons: 703.425288  magneticMoment: [ Abs: 0.00001  Tot: +0.00000 ]
	SubspaceRotationAdjust: set factor to 0.031
ElecMinimize: Iter:  31  G: -1785.443488860260459  |grad|_K:  1.208e-08  alpha:  1.105e+00  linmin:  2.185e-07  t[s]:  13818.71
	Linear fluid (dielectric constant: 78.4, screening length: 5.74355 Bohr) occupying 0.701377 of unit cell:	Completed after 2 iterations at t[s]:  13870.69
	Linear fluid (dielectric constant: 78.4, screening length: 5.74355 Bohr) occupying 0.701377 of unit cell:	Completed after 0 iterations at t[s]:  13918.26
ElecMinimize: 	Step increased G by 4.630056e-08, reducing alpha to 2.513798e-02.
	Linear fluid (dielectric constant: 78.4, screening length: 5.74355 Bohr) occupying 0.701378 of unit cell:	Completed after 0 iterations at t[s]:  14019.91
ElecMinimize: 	Step increased G by 2.565116e-08, reducing alpha to 2.513798e-03.
	Linear fluid (dielectric constant: 78.4, screening length: 5.74355 Bohr) occupying 0.701378 of unit cell:	Completed after 0 iterations at t[s]:  14121.54
ElecMinimize: 	Step increased G by 2.414072e-08, reducing alpha to 2.513798e-04.
ElecMinimize: 	Step failed to reduce G after 3 attempts. Quitting step.
ElecMinimize: 	Undoing step.
	Linear fluid (dielectric constant: 78.4, screening length: 5.74355 Bohr) occupying 0.701378 of unit cell:	Completed after 0 iterations at t[s]:  14223.08
ElecMinimize: 	Step failed: resetting search direction.
	FillingsUpdate:  mu: -0.171251800  nElectrons: 703.425288  magneticMoment: [ Abs: 0.00001  Tot: +0.00000 ]
	SubspaceRotationAdjust: set factor to 0.03
ElecMinimize: Iter:  32  G: -1785.443488836148390  |grad|_K:  1.809e-08  alpha:  2.514e-04
	Linear fluid (dielectric constant: 78.4, screening length: 5.74355 Bohr) occupying 0.701377 of unit cell:	Completed after 1 iterations at t[s]:  14339.09
	Linear fluid (dielectric constant: 78.4, screening length: 5.74355 Bohr) occupying 0.701377 of unit cell:	Completed after 0 iterations at t[s]:  14386.25
	FillingsUpdate:  mu: -0.171251800  nElectrons: 703.425522  magneticMoment: [ Abs: 0.00001  Tot: +0.00000 ]
	SubspaceRotationAdjust: set factor to 0.0299
ElecMinimize: Iter:  33  G: -1785.443488852897190  |grad|_K:  5.961e-09  alpha:  3.481e-01  linmin:  5.413e-04  t[s]:  14451.23
	Linear fluid (dielectric constant: 78.4, screening length: 5.74355 Bohr) occupying 0.701377 of unit cell:	Completed after 0 iterations at t[s]:  14502.39
	Linear fluid (dielectric constant: 78.4, screening length: 5.74355 Bohr) occupying 0.701377 of unit cell:	Completed after 0 iterations at t[s]:  14548.75
	FillingsUpdate:  mu: -0.171251800  nElectrons: 703.425617  magneticMoment: [ Abs: 0.00001  Tot: +0.00000 ]
	SubspaceRotationAdjust: set factor to 0.0401
ElecMinimize: Iter:  34  G: -1785.443488866916141  |grad|_K:  5.001e-09  alpha:  9.321e-01  linmin: -4.938e-07  t[s]:  14613.51
	Linear fluid (dielectric constant: 78.4, screening length: 5.74355 Bohr) occupying 0.701377 of unit cell:	Completed after 0 iterations at t[s]:  14664.71
	Linear fluid (dielectric constant: 78.4, screening length: 5.74355 Bohr) occupying 0.701377 of unit cell:	Completed after 0 iterations at t[s]:  14711.68
ElecMinimize: 	Step increased G by 2.039519e-08, reducing alpha to 2.911858e-02.
	Linear fluid (dielectric constant: 78.4, screening length: 5.74355 Bohr) occupying 0.701377 of unit cell:	Completed after 0 iterations at t[s]:  14813.19
ElecMinimize: 	Step increased G by 2.557840e-08, reducing alpha to 2.911858e-03.
	Linear fluid (dielectric constant: 78.4, screening length: 5.74355 Bohr) occupying 0.701377 of unit cell:	Completed after 0 iterations at t[s]:  14914.58
ElecMinimize: 	Step increased G by 2.622482e-08, reducing alpha to 2.911858e-04.
ElecMinimize: 	Step failed to reduce G after 3 attempts. Quitting step.
ElecMinimize: 	Undoing step.
	Linear fluid (dielectric constant: 78.4, screening length: 5.74355 Bohr) occupying 0.701377 of unit cell:	Completed after 0 iterations at t[s]:  15016.01
ElecMinimize: 	Step failed: resetting search direction.
	FillingsUpdate:  mu: -0.171251800  nElectrons: 703.425617  magneticMoment: [ Abs: 0.00001  Tot: +0.00000 ]
	SubspaceRotationAdjust: set factor to 0.0523
ElecMinimize: Iter:  35  G: -1785.443488840660393  |grad|_K:  5.062e-09  alpha:  2.912e-04
	Linear fluid (dielectric constant: 78.4, screening length: 5.74355 Bohr) occupying 0.701377 of unit cell:	Completed after 0 iterations at t[s]:  15132.59
	Linear fluid (dielectric constant: 78.4, screening length: 5.74355 Bohr) occupying 0.701377 of unit cell:	Completed after 0 iterations at t[s]:  15178.97
	FillingsUpdate:  mu: -0.171251800  nElectrons: 703.425618  magneticMoment: [ Abs: 0.00001  Tot: +0.00000 ]
	SubspaceRotationAdjust: set factor to 0.0469
ElecMinimize: Iter:  36  G: -1785.443488848137122  |grad|_K:  4.531e-09  alpha:  5.315e-01  linmin:  9.215e-08  t[s]:  15243.81
	Linear fluid (dielectric constant: 78.4, screening length: 5.74355 Bohr) occupying 0.701377 of unit cell:	Completed after 0 iterations at t[s]:  15295.46
ElecMinimize: 	Predicted alpha/alphaT>3.000000, increasing alphaT to 1.594433e+00.
	Linear fluid (dielectric constant: 78.4, screening length: 5.74355 Bohr) occupying 0.701377 of unit cell:	Completed after 0 iterations at t[s]:  15341.79
	Linear fluid (dielectric constant: 78.4, screening length: 5.74355 Bohr) occupying 0.701377 of unit cell:	Completed after 0 iterations at t[s]:  15388.39
	FillingsUpdate:  mu: -0.171251800  nElectrons: 703.425625  magneticMoment: [ Abs: 0.00001  Tot: +0.00000 ]
	SubspaceRotationAdjust: set factor to 0.053
ElecMinimize: Iter:  37  G: -1785.443488872820126  |grad|_K:  9.034e-09  alpha:  2.198e+00  linmin: -8.154e-10  t[s]:  15453.41
	Linear fluid (dielectric constant: 78.4, screening length: 5.74355 Bohr) occupying 0.701374 of unit cell:	Completed after 2 iterations at t[s]:  15505.38
	Linear fluid (dielectric constant: 78.4, screening length: 5.74355 Bohr) occupying 0.701376 of unit cell:	Completed after 1 iterations at t[s]:  15553.17
ElecMinimize: 	Step increased G by 1.707622e-08, reducing alpha to 2.920086e-02.
	Linear fluid (dielectric constant: 78.4, screening length: 5.74355 Bohr) occupying 0.701377 of unit cell:	Completed after 0 iterations at t[s]:  15655.55
	FillingsUpdate:  mu: -0.171251800  nElectrons: 703.425625  magneticMoment: [ Abs: 0.00001  Tot: +0.00000 ]
	SubspaceRotationAdjust: set factor to 0.0518
ElecMinimize: Iter:  38  G: -1785.443488901013779  |grad|_K:  2.294e-08  alpha:  2.920e-02  linmin:  3.182e-05  t[s]:  15719.96
ElecMinimize: 	Bad step direction: g.d > 0.
ElecMinimize: 	Undoing step.
	Linear fluid (dielectric constant: 78.4, screening length: 5.74355 Bohr) occupying 0.701377 of unit cell:	Completed after 0 iterations at t[s]:  15771.53
ElecMinimize: 	Step failed: resetting search direction.
	FillingsUpdate:  mu: -0.171251800  nElectrons: 703.425625  magneticMoment: [ Abs: 0.00001  Tot: +0.00000 ]
	SubspaceRotationAdjust: set factor to 0.0545
ElecMinimize: Iter:  39  G: -1785.443488901065166  |grad|_K:  2.282e-08  alpha:  0.000e+00
	Linear fluid (dielectric constant: 78.4, screening length: 5.74355 Bohr) occupying 0.701377 of unit cell:	Completed after 0 iterations at t[s]:  15887.96
ElecMinimize: 	Predicted alpha/alphaT>3.000000, increasing alphaT to 8.760257e-02.
	Linear fluid (dielectric constant: 78.4, screening length: 5.74355 Bohr) occupying 0.701376 of unit cell:	Completed after 0 iterations at t[s]:  15934.30
ElecMinimize: 	Predicted alpha/alphaT>3.000000, increasing alphaT to 2.628077e-01.
	Linear fluid (dielectric constant: 78.4, screening length: 5.74355 Bohr) occupying 0.701376 of unit cell:	Completed after 1 iterations at t[s]:  15980.62
	Linear fluid (dielectric constant: 78.4, screening length: 5.74355 Bohr) occupying 0.701376 of unit cell:	Completed after 0 iterations at t[s]:  16027.93
	FillingsUpdate:  mu: -0.171251800  nElectrons: 703.426098  magneticMoment: [ Abs: 0.00001  Tot: +0.00000 ]
	SubspaceRotationAdjust: set factor to 0.0502
ElecMinimize: Iter:  40  G: -1785.443488902973058  |grad|_K:  1.486e-08  alpha:  1.702e-01  linmin: -8.683e-04  t[s]:  16092.99
ElecMinimize: Converged (|Delta G|<1.000000e-08 for 2 iters).
Setting wave functions to eigenvectors of Hamiltonian
Single-point solvation energy estimate, DeltaG = +0.007777803494946

# Ionic positions in lattice coordinates:
ion Zr   0.125000000000000   0.000000000000000   0.597211559543416 1
ion Zr   0.000000000000000   0.125000000000000   0.402785097123251 1
ion Zr   0.375000000000000   0.000000000000000   0.597211559543416 1
ion Zr   0.250000000000000   0.125000000000000   0.402785097123251 1
ion Zr   0.625000000000000   0.000000000000000   0.597211559543416 1
ion Zr   0.500000000000000   0.125000000000000   0.402785097123251 1
ion Zr   0.875000000000000   0.000000000000000   0.597211559543416 1
ion Zr   0.750000000000000   0.125000000000000   0.402785097123251 1
ion Zr   0.125000000000000   0.250000000000000   0.597211559543416 1
ion Zr   0.000000000000000   0.375000000000000   0.402785097123251 1
ion Zr   0.375000000000000   0.250000000000000   0.597211559543416 1
ion Zr   0.250000000000000   0.375000000000000   0.402785097123251 1
ion Zr   0.625000000000000   0.250000000000000   0.597211559543416 1
ion Zr   0.500000000000000   0.375000000000000   0.402785097123251 1
ion Zr   0.875000000000000   0.250000000000000   0.597211559543416 1
ion Zr   0.750000000000000   0.375000000000000   0.402785097123251 1
ion Zr   0.125000000000000   0.500000000000000   0.597211559543416 1
ion Zr   0.000000000000000   0.625000000000000   0.402785097123251 1
ion Zr   0.375000000000000   0.500000000000000   0.597211559543416 1
ion Zr   0.250000000000000   0.625000000000000   0.402785097123251 1
ion Zr   0.625000000000000   0.500000000000000   0.597211559543416 1
ion Zr   0.500000000000000   0.625000000000000   0.402785097123251 1
ion Zr   0.875000000000000   0.500000000000000   0.597211559543416 1
ion Zr   0.750000000000000   0.625000000000000   0.402785097123251 1
ion Zr   0.125000000000000   0.750000000000000   0.597211559543416 1
ion Zr   0.000000000000000   0.875000000000000   0.402785097123251 1
ion Zr   0.375000000000000   0.750000000000000   0.597211559543416 1
ion Zr   0.250000000000000   0.875000000000000   0.402785097123251 1
ion Zr   0.625000000000000   0.750000000000000   0.597211559543416 1
ion Zr   0.500000000000000   0.875000000000000   0.402785097123251 1
ion Zr   0.875000000000000   0.750000000000000   0.597211559543416 1
ion Zr   0.750000000000000   0.875000000000000   0.402785097123251 1
ion Si   0.125000000000000   0.125000000000000   0.499998328333333 1
ion Si   0.000000000000000   0.000000000000000   0.499998328333333 1
ion Si   0.375000000000000   0.125000000000000   0.499998328333333 1
ion Si   0.250000000000000   0.000000000000000   0.499998328333333 1
ion Si   0.625000000000000   0.125000000000000   0.499998328333333 1
ion Si   0.500000000000000   0.000000000000000   0.499998328333333 1
ion Si   0.875000000000000   0.125000000000000   0.499998328333333 1
ion Si   0.750000000000000   0.000000000000000   0.499998328333333 1
ion Si   0.125000000000000   0.375000000000000   0.499998328333333 1
ion Si   0.000000000000000   0.250000000000000   0.499998328333333 1
ion Si   0.375000000000000   0.375000000000000   0.499998328333333 1
ion Si   0.250000000000000   0.250000000000000   0.499998328333333 1
ion Si   0.625000000000000   0.375000000000000   0.499998328333333 1
ion Si   0.500000000000000   0.250000000000000   0.499998328333333 1
ion Si   0.875000000000000   0.375000000000000   0.499998328333333 1
ion Si   0.750000000000000   0.250000000000000   0.499998328333333 1
ion Si   0.125000000000000   0.625000000000000   0.499998328333333 1
ion Si   0.000000000000000   0.500000000000000   0.499998328333333 1
ion Si   0.375000000000000   0.625000000000000   0.499998328333333 1
ion Si   0.250000000000000   0.500000000000000   0.499998328333333 1
ion Si   0.625000000000000   0.625000000000000   0.499998328333333 1
ion Si   0.500000000000000   0.500000000000000   0.499998328333333 1
ion Si   0.875000000000000   0.625000000000000   0.499998328333333 1
ion Si   0.750000000000000   0.500000000000000   0.499998328333333 1
ion Si   0.125000000000000   0.875000000000000   0.499998328333333 1
ion Si   0.000000000000000   0.750000000000000   0.499998328333333 1
ion Si   0.375000000000000   0.875000000000000   0.499998328333333 1
ion Si   0.250000000000000   0.750000000000000   0.499998328333333 1
ion Si   0.625000000000000   0.875000000000000   0.499998328333333 1
ion Si   0.500000000000000   0.750000000000000   0.499998328333333 1
ion Si   0.875000000000000   0.875000000000000   0.499998328333333 1
ion Si   0.750000000000000   0.750000000000000   0.499998328333333 1
ion Te   0.000000000000000   0.125000000000000   0.661695933571344 1
ion Te   0.125000000000000   0.000000000000000   0.338300723095323 1
ion Te   0.250000000000000   0.125000000000000   0.661695933571344 1
ion Te   0.375000000000000   0.000000000000000   0.338300723095323 1
ion Te   0.500000000000000   0.125000000000000   0.661695933571344 1
ion Te   0.625000000000000   0.000000000000000   0.338300723095323 1
ion Te   0.750000000000000   0.125000000000000   0.661695933571344 1
ion Te   0.875000000000000   0.000000000000000   0.338300723095323 1
ion Te   0.000000000000000   0.375000000000000   0.661695933571344 1
ion Te   0.125000000000000   0.250000000000000   0.338300723095323 1
ion Te   0.250000000000000   0.375000000000000   0.661695933571344 1
ion Te   0.375000000000000   0.250000000000000   0.338300723095323 1
ion Te   0.500000000000000   0.375000000000000   0.661695933571344 1
ion Te   0.625000000000000   0.250000000000000   0.338300723095323 1
ion Te   0.750000000000000   0.375000000000000   0.661695933571344 1
ion Te   0.875000000000000   0.250000000000000   0.338300723095323 1
ion Te   0.000000000000000   0.625000000000000   0.661695933571344 1
ion Te   0.125000000000000   0.500000000000000   0.338300723095323 1
ion Te   0.250000000000000   0.625000000000000   0.661695933571344 1
ion Te   0.375000000000000   0.500000000000000   0.338300723095323 1
ion Te   0.500000000000000   0.625000000000000   0.661695933571344 1
ion Te   0.625000000000000   0.500000000000000   0.338300723095323 1
ion Te   0.750000000000000   0.625000000000000   0.661695933571344 1
ion Te   0.875000000000000   0.500000000000000   0.338300723095323 1
ion Te   0.000000000000000   0.875000000000000   0.661695933571344 1
ion Te   0.125000000000000   0.750000000000000   0.338300723095323 1
ion Te   0.250000000000000   0.875000000000000   0.661695933571344 1
ion Te   0.375000000000000   0.750000000000000   0.338300723095323 1
ion Te   0.500000000000000   0.875000000000000   0.661695933571344 1
ion Te   0.625000000000000   0.750000000000000   0.338300723095323 1
ion Te   0.750000000000000   0.875000000000000   0.661695933571344 1
ion Te   0.875000000000000   0.750000000000000   0.338300723095323 1


# Forces in Lattice coordinates:
force Zr   0.000000000000000   0.000000000000000   0.032459154156640 1
force Zr  -0.000000000000000   0.000000000000000  -0.032459154155731 1
force Zr   0.000000000000000  -0.000000000000000   0.032459154156413 1
force Zr   0.000000000000000   0.000000000000000  -0.032459154155504 1
force Zr   0.000000000000000  -0.000000000000000   0.032459154156413 1
force Zr   0.000000000000000   0.000000000000000  -0.032459154155731 1
force Zr  -0.000000000000000  -0.000000000000000   0.032459154156413 1
force Zr  -0.000000000000000   0.000000000000000  -0.032459154155958 1
force Zr  -0.000000000000000   0.000000000000000   0.032459154156868 1
force Zr  -0.000000000000000   0.000000000000000  -0.032459154155503 1
force Zr   0.000000000000000   0.000000000000000   0.032459154156640 1
force Zr   0.000000000000000   0.000000000000000  -0.032459154155049 1
force Zr   0.000000000000000   0.000000000000000   0.032459154156413 1
force Zr  -0.000000000000000  -0.000000000000000  -0.032459154155276 1
force Zr  -0.000000000000000   0.000000000000000   0.032459154156413 1
force Zr  -0.000000000000000   0.000000000000000  -0.032459154155276 1
force Zr  -0.000000000000000   0.000000000000000   0.032459154156413 1
force Zr  -0.000000000000000   0.000000000000000  -0.032459154155276 1
force Zr   0.000000000000000   0.000000000000000   0.032459154156640 1
force Zr  -0.000000000000000  -0.000000000000000  -0.032459154155276 1
force Zr   0.000000000000000  -0.000000000000000   0.032459154156413 1
force Zr  -0.000000000000000   0.000000000000000  -0.032459154155276 1
force Zr  -0.000000000000000   0.000000000000000   0.032459154156413 1
force Zr  -0.000000000000000   0.000000000000000  -0.032459154155049 1
force Zr   0.000000000000000  -0.000000000000000   0.032459154156413 1
force Zr  -0.000000000000000  -0.000000000000000  -0.032459154155503 1
force Zr  -0.000000000000000   0.000000000000000   0.032459154156413 1
force Zr  -0.000000000000000   0.000000000000000  -0.032459154155503 1
force Zr   0.000000000000000  -0.000000000000000   0.032459154156640 1
force Zr   0.000000000000000  -0.000000000000000  -0.032459154155276 1
force Zr   0.000000000000000   0.000000000000000   0.032459154156413 1
force Zr   0.000000000000000  -0.000000000000000  -0.032459154155049 1
force Si   0.000000000000000   0.000000000000000   0.000000000000000 1
force Si  -0.000000000000000   0.000000000000000   0.000000000000000 1
force Si   0.000000000000000   0.000000000000000   0.000000000000000 1
force Si   0.000000000000000  -0.000000000000000  -0.000000000000000 1
force Si  -0.000000000000000   0.000000000000000   0.000000000000000 1
force Si  -0.000000000000000   0.000000000000000  -0.000000000000000 1
force Si  -0.000000000000000  -0.000000000000000   0.000000000000000 1
force Si   0.000000000000000   0.000000000000000  -0.000000000000000 1
force Si   0.000000000000000  -0.000000000000000  -0.000000000000000 1
force Si   0.000000000000000   0.000000000000000   0.000000000000000 1
force Si  -0.000000000000000   0.000000000000000  -0.000000000000000 1
force Si   0.000000000000000   0.000000000000000  -0.000000000000000 1
force Si  -0.000000000000000  -0.000000000000000  -0.000000000000000 1
force Si  -0.000000000000000   0.000000000000000  -0.000000000000000 1
force Si  -0.000000000000000  -0.000000000000000  -0.000000000000000 1
force Si  -0.000000000000000   0.000000000000000  -0.000000000000000 1
force Si  -0.000000000000000   0.000000000000000  -0.000000000000000 1
force Si  -0.000000000000000   0.000000000000000   0.000000000000000 1
force Si  -0.000000000000000   0.000000000000000  -0.000000000000000 1
force Si   0.000000000000000   0.000000000000000   0.000000000000000 1
[...]
ElecMinimize: 	Undoing step.
	Linear fluid (dielectric constant: 78.4, screening length: 5.74355 Bohr) occupying 0.701413 of unit cell:	Completed after 0 iterations at t[s]:  24781.56
ElecMinimize: 	Step failed: resetting search direction.
	FillingsUpdate:  mu: -0.171251800  nElectrons: 703.419344  magneticMoment: [ Abs: 0.00001  Tot: -0.00000 ]
	SubspaceRotationAdjust: set factor to 0.0723
ElecMinimize: Iter:  14  G: -1785.443529709010136  |grad|_K:  3.294e-08  alpha:  0.000e+00
	Linear fluid (dielectric constant: 78.4, screening length: 5.74355 Bohr) occupying 0.701413 of unit cell:	Completed after 0 iterations at t[s]:  24896.92
ElecMinimize: 	Wrong curvature in test step, increasing alphaT to 4.916589e-03.
	Linear fluid (dielectric constant: 78.4, screening length: 5.74355 Bohr) occupying 0.701413 of unit cell:	Completed after 0 iterations at t[s]:  24927.13
	FillingsUpdate:  mu: -0.171251800  nElectrons: 703.419356  magneticMoment: [ Abs: 0.00001  Tot: -0.00000 ]
	SubspaceRotationAdjust: set factor to 0.052
ElecMinimize: Iter:  15  G: -1785.443529710972143  |grad|_K:  2.793e-08  alpha: -1.132e-01  linmin: -1.171e-03  t[s]:  24992.34
	Linear fluid (dielectric constant: 78.4, screening length: 5.74355 Bohr) occupying 0.701411 of unit cell:	Completed after 7 iterations at t[s]:  25044.14
	Linear fluid (dielectric constant: 78.4, screening length: 5.74355 Bohr) occupying 0.701413 of unit cell:	Completed after 3 iterations at t[s]:  25093.80
	FillingsUpdate:  mu: -0.171251800  nElectrons: 703.420845  magneticMoment: [ Abs: 0.00001  Tot: -0.00000 ]
	SubspaceRotationAdjust: set factor to 0.0296
ElecMinimize: Iter:  16  G: -1785.443530009539018  |grad|_K:  3.465e-08  alpha:  1.517e-01  linmin:  1.882e-03  t[s]:  25160.00
ElecMinimize: 	Bad step direction: g.d > 0.
ElecMinimize: 	Undoing step.
	Linear fluid (dielectric constant: 78.4, screening length: 5.74355 Bohr) occupying 0.701413 of unit cell:	Completed after 0 iterations at t[s]:  25211.05
ElecMinimize: 	Step failed: resetting search direction.
	FillingsUpdate:  mu: -0.171251800  nElectrons: 703.420845  magneticMoment: [ Abs: 0.00001  Tot: -0.00000 ]
	SubspaceRotationAdjust: set factor to 0.0185
	SubspaceRotationAdjust: resetting CG because factor has changed by 0.101967
	Linear fluid (dielectric constant: 78.4, screening length: 5.74355 Bohr) occupying 0.701413 of unit cell:	Completed after 0 iterations at t[s]:  25296.18
ElecMinimize: 	State modified externally: resetting search direction.
ElecMinimize: Iter:  17  G: -1785.443530009561073  |grad|_K:  2.291e-08  alpha:  0.000e+00
	Linear fluid (dielectric constant: 78.4, screening length: 5.74355 Bohr) occupying 0.701412 of unit cell:	Completed after 3 iterations at t[s]:  25412.24
	Linear fluid (dielectric constant: 78.4, screening length: 5.74355 Bohr) occupying 0.701412 of unit cell:	Completed after 0 iterations at t[s]:  25460.57
ElecMinimize: 	Step increased G by 3.098055e-07, reducing alpha to 1.898111e-03.
	Linear fluid (dielectric constant: 78.4, screening length: 5.74355 Bohr) occupying 0.701413 of unit cell:	Completed after 0 iterations at t[s]:  25562.36
ElecMinimize: 	Step increased G by 3.161490e-07, reducing alpha to 1.898111e-04.
	Linear fluid (dielectric constant: 78.4, screening length: 5.74355 Bohr) occupying 0.701413 of unit cell:	Completed after 0 iterations at t[s]:  25663.81
ElecMinimize: 	Step increased G by 3.168007e-07, reducing alpha to 1.898111e-05.
ElecMinimize: 	Step failed to reduce G after 3 attempts. Quitting step.
ElecMinimize: 	Undoing step.
	Linear fluid (dielectric constant: 78.4, screening length: 5.74355 Bohr) occupying 0.701413 of unit cell:	Completed after 0 iterations at t[s]:  25765.02
ElecMinimize: 	Step failed along negative gradient direction.
ElecMinimize: Probably at roundoff error limit. (Stopping)
Setting wave functions to eigenvectors of Hamiltonian

# Ionic positions in lattice coordinates:
ion Zr   0.125000000000000   0.000000000000000   0.597272409592966 1
ion Zr  -0.000000000000000   0.125000000000000   0.402724247073701 1
ion Zr   0.375000000000000   0.000000000000000   0.597272409592966 1
ion Zr   0.250000000000000   0.125000000000000   0.402724247073701 1
ion Zr   0.625000000000000   0.000000000000000   0.597272409592966 1
ion Zr   0.500000000000000   0.125000000000000   0.402724247073701 1
ion Zr   0.875000000000000  -0.000000000000000   0.597272409592966 1
ion Zr   0.750000000000000   0.125000000000000   0.402724247073701 1
ion Zr   0.125000000000000   0.250000000000000   0.597272409592966 1
ion Zr  -0.000000000000000   0.375000000000000   0.402724247073701 1
ion Zr   0.375000000000000   0.250000000000000   0.597272409592966 1
ion Zr   0.250000000000000   0.375000000000000   0.402724247073701 1
ion Zr   0.625000000000000   0.250000000000000   0.597272409592966 1
ion Zr   0.500000000000000   0.375000000000000   0.402724247073701 1
ion Zr   0.875000000000000   0.250000000000000   0.597272409592966 1
ion Zr   0.750000000000000   0.375000000000000   0.402724247073701 1
ion Zr   0.125000000000000   0.500000000000000   0.597272409592966 1
ion Zr   0.000000000000000   0.625000000000000   0.402724247073701 1
ion Zr   0.375000000000000   0.500000000000000   0.597272409592966 1
ion Zr   0.250000000000000   0.625000000000000   0.402724247073701 1
ion Zr   0.625000000000000   0.500000000000000   0.597272409592966 1
ion Zr   0.500000000000000   0.625000000000000   0.402724247073701 1
ion Zr   0.875000000000000   0.500000000000000   0.597272409592966 1
ion Zr   0.750000000000000   0.625000000000000   0.402724247073701 1
ion Zr   0.125000000000000   0.750000000000000   0.597272409592966 1
ion Zr   0.000000000000000   0.875000000000000   0.402724247073701 1
ion Zr   0.375000000000000   0.750000000000000   0.597272409592966 1
ion Zr   0.250000000000000   0.875000000000000   0.402724247073701 1
ion Zr   0.625000000000000   0.750000000000000   0.597272409592966 1
ion Zr   0.500000000000000   0.875000000000000   0.402724247073701 1
ion Zr   0.875000000000000   0.750000000000000   0.597272409592966 1
ion Zr   0.750000000000000   0.875000000000000   0.402724247073701 1
ion Si   0.125000000000000   0.125000000000000   0.499998328333333 1
ion Si   0.000000000000000  -0.000000000000000   0.499998328333333 1
ion Si   0.375000000000000   0.125000000000000   0.499998328333333 1
ion Si   0.250000000000000  -0.000000000000000   0.499998328333333 1
ion Si   0.625000000000000   0.125000000000000   0.499998328333333 1
ion Si   0.500000000000000  -0.000000000000000   0.499998328333333 1
ion Si   0.875000000000000   0.125000000000000   0.499998328333333 1
ion Si   0.750000000000000  -0.000000000000000   0.499998328333333 1
ion Si   0.125000000000000   0.375000000000000   0.499998328333333 1
ion Si   0.000000000000000   0.250000000000000   0.499998328333333 1
ion Si   0.375000000000000   0.375000000000000   0.499998328333333 1
ion Si   0.250000000000000   0.250000000000000   0.499998328333333 1
ion Si   0.625000000000000   0.375000000000000   0.499998328333333 1
ion Si   0.500000000000000   0.250000000000000   0.499998328333333 1
ion Si   0.875000000000000   0.375000000000000   0.499998328333333 1
ion Si   0.750000000000000   0.250000000000000   0.499998328333333 1
ion Si   0.125000000000000   0.625000000000000   0.499998328333333 1
ion Si   0.000000000000000   0.500000000000000   0.499998328333333 1
ion Si   0.375000000000000   0.625000000000000   0.499998328333333 1
ion Si   0.250000000000000   0.500000000000000   0.499998328333333 1
ion Si   0.625000000000000   0.625000000000000   0.499998328333333 1
ion Si   0.500000000000000   0.500000000000000   0.499998328333333 1
ion Si   0.875000000000000   0.625000000000000   0.499998328333333 1
ion Si   0.750000000000000   0.500000000000000   0.499998328333333 1
ion Si   0.125000000000000   0.875000000000000   0.499998328333333 1
ion Si   0.000000000000000   0.750000000000000   0.499998328333333 1
ion Si   0.375000000000000   0.875000000000000   0.499998328333333 1
ion Si   0.250000000000000   0.750000000000000   0.499998328333333 1
ion Si   0.625000000000000   0.875000000000000   0.499998328333333 1
ion Si   0.500000000000000   0.750000000000000   0.499998328333333 1
ion Si   0.875000000000000   0.875000000000000   0.499998328333333 1
ion Si   0.750000000000000   0.750000000000000   0.499998328333333 1
ion Te   0.000000000000000   0.125000000000000   0.661661141459338 1
ion Te   0.125000000000000   0.000000000000000   0.338335515207329 1
ion Te   0.250000000000000   0.125000000000000   0.661661141459338 1
ion Te   0.375000000000000  -0.000000000000000   0.338335515207329 1
ion Te   0.500000000000000   0.125000000000000   0.661661141459338 1
ion Te   0.625000000000000  -0.000000000000000   0.338335515207329 1
ion Te   0.750000000000000   0.125000000000000   0.661661141459338 1
ion Te   0.875000000000000  -0.000000000000000   0.338335515207329 1
ion Te   0.000000000000000   0.375000000000000   0.661661141459338 1
ion Te   0.125000000000000   0.250000000000000   0.338335515207329 1
ion Te   0.250000000000000   0.375000000000000   0.661661141459338 1
ion Te   0.375000000000000   0.250000000000000   0.338335515207329 1
ion Te   0.500000000000000   0.375000000000000   0.661661141459338 1
ion Te   0.625000000000000   0.250000000000000   0.338335515207329 1
ion Te   0.750000000000000   0.375000000000000   0.661661141459338 1
ion Te   0.875000000000000   0.250000000000000   0.338335515207329 1
ion Te   0.000000000000000   0.625000000000000   0.661661141459338 1
ion Te   0.125000000000000   0.500000000000000   0.338335515207329 1
ion Te   0.250000000000000   0.625000000000000   0.661661141459338 1
ion Te   0.375000000000000   0.500000000000000   0.338335515207329 1
ion Te   0.500000000000000   0.625000000000000   0.661661141459338 1
ion Te   0.625000000000000   0.500000000000000   0.338335515207329 1
ion Te   0.750000000000000   0.625000000000000   0.661661141459338 1
ion Te   0.875000000000000   0.500000000000000   0.338335515207329 1
ion Te   0.000000000000000   0.875000000000000   0.661661141459338 1
ion Te   0.125000000000000   0.750000000000000   0.338335515207329 1
ion Te   0.250000000000000   0.875000000000000   0.661661141459338 1
ion Te   0.375000000000000   0.750000000000000   0.338335515207329 1
ion Te   0.500000000000000   0.875000000000000   0.661661141459338 1
ion Te   0.625000000000000   0.750000000000000   0.338335515207329 1
ion Te   0.750000000000000   0.875000000000000   0.661661141459338 1
ion Te   0.875000000000000   0.750000000000000   0.338335515207329 1


# Forces in Lattice coordinates:
force Zr  -0.000000000000000  -0.000000000000000   0.001174719542736 1
force Zr   0.000000000000000  -0.000000000000000  -0.001174719542509 1
force Zr   0.000000000000000  -0.000000000000000   0.001174719542963 1
force Zr  -0.000000000000000  -0.000000000000000  -0.001174719542281 1
force Zr   0.000000000000000  -0.000000000000000   0.001174719542736 1
force Zr  -0.000000000000000  -0.000000000000000  -0.001174719542736 1
force Zr   0.000000000000000   0.000000000000000   0.001174719542963 1
force Zr   0.000000000000000  -0.000000000000000  -0.001174719542281 1
force Zr  -0.000000000000000  -0.000000000000000   0.001174719542736 1
force Zr   0.000000000000000  -0.000000000000000  -0.001174719542963 1
force Zr   0.000000000000000   0.000000000000000   0.001174719542963 1
force Zr  -0.000000000000000  -0.000000000000000  -0.001174719542736 1
force Zr  -0.000000000000000  -0.000000000000000   0.001174719542736 1
force Zr  -0.000000000000000  -0.000000000000000  -0.001174719542963 1
force Zr   0.000000000000000  -0.000000000000000   0.001174719542963 1
force Zr   0.000000000000000  -0.000000000000000  -0.001174719542508 1
force Zr  -0.000000000000000   0.000000000000000   0.001174719542509 1
force Zr   0.000000000000000   0.000000000000000  -0.001174719542964 1
force Zr  -0.000000000000000  -0.000000000000000   0.001174719543191 1
force Zr  -0.000000000000000   0.000000000000000  -0.001174719542737 1
force Zr   0.000000000000000  -0.000000000000000   0.001174719542736 1
force Zr  -0.000000000000000   0.000000000000000  -0.001174719542963 1
force Zr   0.000000000000000  -0.000000000000000   0.001174719542963 1
force Zr   0.000000000000000   0.000000000000000  -0.001174719542509 1
force Zr  -0.000000000000000   0.000000000000000   0.001174719542281 1
force Zr   0.000000000000000   0.000000000000000  -0.001174719542963 1
force Zr  -0.000000000000000   0.000000000000000   0.001174719542736 1
force Zr  -0.000000000000000   0.000000000000000  -0.001174719542736 1
force Zr  -0.000000000000000   0.000000000000000   0.001174719542508 1
force Zr  -0.000000000000000   0.000000000000000  -0.001174719542736 1
force Zr   0.000000000000000   0.000000000000000   0.001174719542736 1
force Zr   0.000000000000000   0.000000000000000  -0.001174719542509 1
force Si   0.000000000000000  -0.000000000000000  -0.000000000000000 1
force Si  -0.000000000000000   0.000000000000000  -0.000000000000000 1
force Si  -0.000000000000000  -0.000000000000000  -0.000000000000000 1
force Si   0.000000000000000   0.000000000000000  -0.000000000000000 1
force Si  -0.000000000000000   0.000000000000000  -0.000000000000000 1
force Si   0.000000000000000   0.000000000000000   0.000000000000000 1
force Si   0.000000000000000  -0.000000000000000   0.000000000000000 1
force Si  -0.000000000000000   0.000000000000000  -0.000000000000000 1
force Si   0.000000000000000   0.000000000000000   0.000000000000000 1
force Si  -0.000000000000000  -0.000000000000000  -0.000000000000000 1
force Si  -0.000000000000000  -0.000000000000000   0.000000000000000 1
force Si  -0.000000000000000  -0.000000000000000  -0.000000000000000 1
force Si  -0.000000000000000  -0.000000000000000   0.000000000000000 1
force Si  -0.000000000000000  -0.000000000000000   0.000000000000000 1
force Si  -0.000000000000000  -0.000000000000000  -0.000000000000000 1
force Si   0.000000000000000   0.000000000000000  -0.000000000000000 1
force Si  -0.000000000000000  -0.000000000000000  -0.000000000000000 1
force Si   0.000000000000000   0.000000000000000  -0.000000000000000 1
force Si  -0.000000000000000   0.000000000000000  -0.000000000000000 1
force Si   0.000000000000000  -0.000000000000000   0.000000000000000 1
force Si  -0.000000000000000   0.000000000000000   0.000000000000000 1
force Si  -0.000000000000000  -0.000000000000000   0.000000000000000 1
force Si  -0.000000000000000   0.000000000000000  -0.000000000000000 1
force Si   0.000000000000000  -0.000000000000000   0.000000000000000 1
force Si   0.000000000000000  -0.000000000000000  -0.000000000000000 1
force Si  -0.000000000000000   0.000000000000000  -0.000000000000000 1
force Si  -0.000000000000000   0.000000000000000   0.000000000000000 1
force Si  -0.000000000000000   0.000000000000000  -0.000000000000000 1
force Si  -0.000000000000000  -0.000000000000000   0.000000000000000 1
force Si  -0.000000000000000  -0.000000000000000   0.000000000000000 1
force Si   0.000000000000000   0.000000000000000  -0.000000000000000 1
force Si   0.000000000000000  -0.000000000000000  -0.000000000000000 1
force Te   0.000000000000000  -0.000000000000000  -0.004360287712179 1
force Te   0.000000000000000  -0.000000000000000   0.004360287712179 1
force Te   0.000000000000000  -0.000000000000000  -0.004360287712180 1
force Te  -0.000000000000000  -0.000000000000000   0.004360287712066 1
force Te  -0.000000000000000   0.000000000000000  -0.004360287712179 1
force Te  -0.000000000000000  -0.000000000000000   0.004360287712293 1
force Te  -0.000000000000000   0.000000000000000  -0.004360287712179 1
force Te   0.000000000000000  -0.000000000000000   0.004360287712292 1
force Te   0.000000000000000  -0.000000000000000  -0.004360287712179 1
force Te   0.000000000000000  -0.000000000000000   0.004360287712179 1
force Te   0.000000000000000  -0.000000000000000  -0.004360287712066 1
force Te   0.000000000000000  -0.000000000000000   0.004360287712066 1
force Te  -0.000000000000000  -0.000000000000000  -0.004360287712180 1
force Te   0.000000000000000   0.000000000000000   0.004360287712293 1
force Te  -0.000000000000000  -0.000000000000000  -0.004360287712180 1
force Te   0.000000000000000  -0.000000000000000   0.004360287712293 1
force Te  -0.000000000000000   0.000000000000000  -0.004360287712293 1
force Te   0.000000000000000   0.000000000000000   0.004360287712179 1
force Te   0.000000000000000   0.000000000000000  -0.004360287712066 1
force Te  -0.000000000000000   0.000000000000000   0.004360287712066 1
force Te  -0.000000000000000  -0.000000000000000  -0.004360287712179 1
force Te   0.000000000000000   0.000000000000000   0.004360287712293 1
force Te  -0.000000000000000  -0.000000000000000  -0.004360287712066 1
force Te   0.000000000000000   0.000000000000000   0.004360287712406 1
force Te   0.000000000000000   0.000000000000000  -0.004360287712293 1
force Te   0.000000000000000  -0.000000000000000   0.004360287712293 1
force Te   0.000000000000000   0.000000000000000  -0.004360287712180 1
force Te  -0.000000000000000  -0.000000000000000   0.004360287712179 1
force Te  -0.000000000000000   0.000000000000000  -0.004360287712293 1
force Te  -0.000000000000000  -0.000000000000000   0.004360287712293 1
force Te  -0.000000000000000   0.000000000000000  -0.004360287712293 1
force Te   0.000000000000000  -0.000000000000000   0.004360287712406 1

# Energy components:
   A_diel =        0.0632654140720715
   Eewald =    16941.8039088396908483
       EH =    18493.6923112586737261
     Eloc =   -37684.4088089619617676
      Enl =       98.8342651576776063
      Exc =     -586.3607864976609108
 Exc_core =      260.8325347314220153
       KE =      569.7072165255447089
  MuShift =        0.0063758619978419
-------------------------------------
     Etot =    -1905.8297176705441416
       TS =        0.0758977491468039
-------------------------------------
        F =    -1905.9056154196910029
      muN =     -120.4620857269332106
-------------------------------------
        G =    -1785.4435296927576928

IonicMinimize: Iter:   2  G: -1785.443529692757693  |grad|_K:  3.611e-05  alpha:  1.000e+00  linmin: -7.764e-01  t[s]:  25870.41
IonicMinimize: Converged (|grad|_K<1.000000e-04).

#--- Lowdin population analysis ---
# oxidation-state Zr -0.677 -0.677 -0.677 -0.677 -0.677 -0.677 -0.677 -0.677 -0.677 -0.677 -0.677 -0.677 -0.677 -0.677 -0.677 -0.677 -0.677 -0.677 -0.677 -0.677 -0.677 -0.677 -0.677 -0.677 -0.677 -0.677 -0.677 -0.677 -0.677 -0.677 -0.677 -0.677
# magnetic-moments Zr -0.000 -0.000 -0.000 -0.000 -0.000 -0.000 -0.000 -0.000 -0.000 -0.000 -0.000 -0.000 -0.000 -0.000 -0.000 -0.000 -0.000 -0.000 -0.000 -0.000 -0.000 -0.000 -0.000 -0.000 -0.000 -0.000 -0.000 -0.000 -0.000 -0.000 -0.000 -0.000
# oxidation-state Si +0.324 +0.324 +0.324 +0.324 +0.324 +0.324 +0.324 +0.324 +0.324 +0.324 +0.324 +0.324 +0.324 +0.324 +0.324 +0.324 +0.324 +0.324 +0.324 +0.324 +0.324 +0.324 +0.324 +0.324 +0.324 +0.324 +0.324 +0.324 +0.324 +0.324 +0.324 +0.324
# magnetic-moments Si -0.000 -0.000 -0.000 -0.000 -0.000 -0.000 -0.000 -0.000 -0.000 -0.000 -0.000 -0.000 -0.000 -0.000 -0.000 -0.000 -0.000 -0.000 -0.000 -0.000 -0.000 -0.000 -0.000 -0.000 -0.000 -0.000 -0.000 -0.000 -0.000 -0.000 -0.000 -0.000
# oxidation-state Te +0.451 +0.451 +0.451 +0.451 +0.451 +0.451 +0.451 +0.451 +0.451 +0.451 +0.451 +0.451 +0.451 +0.451 +0.451 +0.451 +0.451 +0.451 +0.451 +0.451 +0.451 +0.451 +0.451 +0.451 +0.451 +0.451 +0.451 +0.451 +0.451 +0.451 +0.451 +0.451
# magnetic-moments Te +0.000 +0.000 +0.000 +0.000 +0.000 +0.000 +0.000 +0.000 +0.000 +0.000 +0.000 +0.000 +0.000 +0.000 +0.000 +0.000 +0.000 +0.000 +0.000 +0.000 +0.000 +0.000 +0.000 +0.000 +0.000 +0.000 +0.000 +0.000 +0.000 +0.000 +0.000 +0.000


Dumping 'NbTe2.fillings' ... done
Dumping 'NbTe2.wfns' ... done
Dumping 'NbTe2.fluidState' ... done
Dumping 'NbTe2.ionpos' ... done
Dumping 'NbTe2.eigenvals' ... done
End date and time: Wed Feb 24 17:33:59 2021  (Duration: 0-7:11:42.90)
Done!
