
*************** JDFTx 1.5.0  ***************

Start date and time: Sat Feb  6 11:55:53 2021
Executable jdftx_gpu with command-line: -i Charged.in -o Charged.out
Running on hosts (process indices):  amax (0-6)
Divided in process groups (process indices):  0 (0)  1 (1)  2 (2)  3 (3)  4 (4)  5 (5)  6 (6)
gpuInit: Found compatible cuda device 0 'Tesla K80'
gpuInit: Found compatible cuda device 1 'Tesla K80'
gpuInit: Found compatible cuda device 2 'Tesla K80'
gpuInit: Found compatible cuda device 3 'Tesla K80'
gpuInit: Found compatible cuda device 4 'Tesla K80'
gpuInit: Found compatible cuda device 5 'Tesla K80'
gpuInit: Found compatible cuda device 6 'Tesla K80'
gpuInit: Selected device 0
Resource initialization completed at t[s]:      3.46
Run totals: 7 processes, 24 threads, 7 GPUs


Input parsed successfully to the following command list (including defaults):

basis kpoint-dependent
cache-projectors no
coords-type Lattice
core-overlap-check none
coulomb-interaction Slab 001
coulomb-truncation-embed 0.5 0.5 0.5
davidson-band-ratio 1.1
dump End State
dump-name NbTe2.$VAR
elec-cutoff 20
elec-eigen-algo Davidson
elec-ex-corr gga-PBE
elec-initial-charge 0.500000
elec-initial-magnetization 10.000000 no
elec-smearing Gauss 0.0073499
electronic-minimize  \
	dirUpdateScheme      FletcherReeves \
	linminMethod         DirUpdateRecommended \
	nIterations          200 \
	history              15 \
	knormThreshold       0 \
	energyDiffThreshold  1e-08 \
	nEnergyDiff          2 \
	alphaTstart          1 \
	alphaTmin            1e-10 \
	updateTestStepSize   yes \
	alphaTreduceFactor   0.1 \
	alphaTincreaseFactor 3 \
	nAlphaAdjustMax      3 \
	wolfeEnergy          0.0001 \
	wolfeGradient        0.9 \
	fdTest               no
exchange-regularization WignerSeitzTruncated
fluid LinearPCM 298.000000 1.013250
fluid-anion F- 1 MeanFieldLJ \
	epsBulk 1 \
	pMol 0 \
	epsInf 1 \
	Pvap 0 \
	sigmaBulk 0 \
	Rvdw 2.24877 \
	Res 0 \
	tauNuc 343133
fluid-cation Na+ 1 MeanFieldLJ \
	epsBulk 1 \
	pMol 0 \
	epsInf 1 \
	Pvap 0 \
	sigmaBulk 0 \
	Rvdw 2.19208 \
	Res 0 \
	tauNuc 343133
fluid-ex-corr lda-TF lda-PZ
fluid-gummel-loop 10 1.000000e-05
fluid-minimize  \
	dirUpdateScheme      PolakRibiere \
	linminMethod         DirUpdateRecommended \
	nIterations          400 \
	history              15 \
	knormThreshold       1e-11 \
	energyDiffThreshold  0 \
	nEnergyDiff          2 \
	alphaTstart          1 \
	alphaTmin            1e-10 \
	updateTestStepSize   yes \
	alphaTreduceFactor   0.1 \
	alphaTincreaseFactor 3 \
	nAlphaAdjustMax      6 \
	wolfeEnergy          0.0001 \
	wolfeGradient        0.9 \
	fdTest               no
fluid-solvent H2O 55.338 ScalarEOS \
	epsBulk 78.4 \
	pMol 0.92466 \
	epsInf 1.77 \
	Pvap 1.06736e-10 \
	sigmaBulk 4.62e-05 \
	Rvdw 2.61727 \
	Res 1.42 \
	tauNuc 343133 \
	poleEl 15 7 1
forces-output-coords Positions
initial-state NbTe2.$VAR
ion Zr   0.125000000000000   0.000000000000000   0.600463993117415 1
ion Zr   0.000000000000000   0.125000000000000   0.399535992215919 1
ion Zr   0.375000000000000   0.000000000000000   0.600463993117415 1
ion Zr   0.250000000000000   0.125000000000000   0.399535992215919 1
ion Zr   0.625000000000000   0.000000000000000   0.600463993117415 1
ion Zr   0.500000000000000   0.125000000000000   0.399535992215919 1
ion Zr   0.875000000000000   0.000000000000000   0.600463993117415 1
ion Zr   0.750000000000000   0.125000000000000   0.399535992215919 1
ion Zr   0.125000000000000   0.250000000000000   0.600463993117415 1
ion Zr   0.000000000000000   0.375000000000000   0.399535992215919 1
ion Zr   0.375000000000000   0.250000000000000   0.600463993117415 1
ion Zr   0.250000000000000   0.375000000000000   0.399535992215919 1
ion Zr   0.625000000000000   0.250000000000000   0.600463993117415 1
ion Zr   0.500000000000000   0.375000000000000   0.399535992215919 1
ion Zr   0.875000000000000   0.250000000000000   0.600463993117415 1
ion Zr   0.750000000000000   0.375000000000000   0.399535992215919 1
ion Zr   0.125000000000000   0.500000000000000   0.600463993117415 1
ion Zr   0.000000000000000   0.625000000000000   0.399535992215919 1
ion Zr   0.375000000000000   0.500000000000000   0.600463993117415 1
ion Zr   0.250000000000000   0.625000000000000   0.399535992215919 1
ion Zr   0.625000000000000   0.500000000000000   0.600463993117415 1
ion Zr   0.500000000000000   0.625000000000000   0.399535992215919 1
ion Zr   0.875000000000000   0.500000000000000   0.600463993117415 1
ion Zr   0.750000000000000   0.625000000000000   0.399535992215919 1
ion Zr   0.125000000000000   0.750000000000000   0.600463993117415 1
ion Zr   0.000000000000000   0.875000000000000   0.399535992215919 1
ion Zr   0.375000000000000   0.750000000000000   0.600463993117415 1
ion Zr   0.250000000000000   0.875000000000000   0.399535992215919 1
ion Zr   0.625000000000000   0.750000000000000   0.600463993117415 1
ion Zr   0.500000000000000   0.875000000000000   0.399535992215919 1
ion Zr   0.875000000000000   0.750000000000000   0.600463993117415 1
ion Zr   0.750000000000000   0.875000000000000   0.399535992215919 1
ion Si   0.000000000000000   0.000000000000000   0.499999992666667 1
ion Si   0.125000000000000   0.125000000000000   0.499999992666667 1
ion Si   0.250000000000000   0.000000000000000   0.499999992666667 1
ion Si   0.375000000000000   0.125000000000000   0.499999992666667 1
ion Si   0.500000000000000   0.000000000000000   0.499999992666667 1
ion Si   0.625000000000000   0.125000000000000   0.499999992666667 1
ion Si   0.750000000000000   0.000000000000000   0.499999992666667 1
ion Si   0.875000000000000   0.125000000000000   0.499999992666667 1
ion Si   0.000000000000000   0.250000000000000   0.499999992666667 1
ion Si   0.125000000000000   0.375000000000000   0.499999992666667 1
ion Si   0.250000000000000   0.250000000000000   0.499999992666667 1
ion Si   0.375000000000000   0.375000000000000   0.499999992666667 1
ion Si   0.500000000000000   0.250000000000000   0.499999992666667 1
ion Si   0.625000000000000   0.375000000000000   0.499999992666667 1
ion Si   0.750000000000000   0.250000000000000   0.499999992666667 1
ion Si   0.875000000000000   0.375000000000000   0.499999992666667 1
ion Si   0.000000000000000   0.500000000000000   0.499999992666667 1
ion Si   0.125000000000000   0.625000000000000   0.499999992666667 1
ion Si   0.250000000000000   0.500000000000000   0.499999992666667 1
ion Si   0.375000000000000   0.625000000000000   0.499999992666667 1
ion Si   0.500000000000000   0.500000000000000   0.499999992666667 1
ion Si   0.625000000000000   0.625000000000000   0.499999992666667 1
ion Si   0.750000000000000   0.500000000000000   0.499999992666667 1
ion Si   0.875000000000000   0.625000000000000   0.499999992666667 1
ion Si   0.000000000000000   0.750000000000000   0.499999992666667 1
ion Si   0.125000000000000   0.875000000000000   0.499999992666667 1
ion Si   0.250000000000000   0.750000000000000   0.499999992666667 1
ion Si   0.375000000000000   0.875000000000000   0.499999992666667 1
ion Si   0.500000000000000   0.750000000000000   0.499999992666667 1
ion Si   0.625000000000000   0.875000000000000   0.499999992666667 1
ion Si   0.750000000000000   0.750000000000000   0.499999992666667 1
ion Si   0.875000000000000   0.875000000000000   0.499999992666667 1
ion Se   0.000000000000000   0.125000000000000   0.655072542915365 1
ion Se   0.125000000000000   0.000000000000000   0.344927442417968 1
ion Se   0.250000000000000   0.125000000000000   0.655072542915365 1
ion Se   0.375000000000000   0.000000000000000   0.344927442417968 1
ion Se   0.500000000000000   0.125000000000000   0.655072542915365 1
ion Se   0.625000000000000   0.000000000000000   0.344927442417968 1
ion Se   0.750000000000000   0.125000000000000   0.655072542915365 1
ion Se   0.875000000000000   0.000000000000000   0.344927442417968 1
ion Se   0.000000000000000   0.375000000000000   0.655072542915365 1
ion Se   0.125000000000000   0.250000000000000   0.344927442417968 1
ion Se   0.250000000000000   0.375000000000000   0.655072542915365 1
ion Se   0.375000000000000   0.250000000000000   0.344927442417968 1
ion Se   0.500000000000000   0.375000000000000   0.655072542915365 1
ion Se   0.625000000000000   0.250000000000000   0.344927442417968 1
ion Se   0.750000000000000   0.375000000000000   0.655072542915365 1
ion Se   0.875000000000000   0.250000000000000   0.344927442417968 1
ion Se   0.000000000000000   0.625000000000000   0.655072542915365 1
ion Se   0.125000000000000   0.500000000000000   0.344927442417968 1
ion Se   0.250000000000000   0.625000000000000   0.655072542915365 1
ion Se   0.375000000000000   0.500000000000000   0.344927442417968 1
ion Se   0.500000000000000   0.625000000000000   0.655072542915365 1
ion Se   0.625000000000000   0.500000000000000   0.344927442417968 1
ion Se   0.750000000000000   0.625000000000000   0.655072542915365 1
ion Se   0.875000000000000   0.500000000000000   0.344927442417968 1
ion Se   0.000000000000000   0.875000000000000   0.655072542915365 1
ion Se   0.125000000000000   0.750000000000000   0.344927442417968 1
ion Se   0.250000000000000   0.875000000000000   0.655072542915365 1
ion Se   0.375000000000000   0.750000000000000   0.344927442417968 1
ion Se   0.500000000000000   0.875000000000000   0.655072542915365 1
ion Se   0.625000000000000   0.750000000000000   0.344927442417968 1
ion Se   0.750000000000000   0.875000000000000   0.655072542915365 1
ion Se   0.875000000000000   0.750000000000000   0.344927442417968 1
ion-species GBRV/$ID_pbe.uspp
ion-width Ecut
ionic-minimize  \
	dirUpdateScheme      L-BFGS \
	linminMethod         DirUpdateRecommended \
	nIterations          500 \
	history              15 \
	knormThreshold       0.0001 \
	energyDiffThreshold  1e-06 \
	nEnergyDiff          2 \
	alphaTstart          1 \
	alphaTmin            1e-10 \
	updateTestStepSize   yes \
	alphaTreduceFactor   0.1 \
	alphaTincreaseFactor 3 \
	nAlphaAdjustMax      3 \
	wolfeEnergy          0.0001 \
	wolfeGradient        0.9 \
	fdTest               no
kpoint   0.000000000000   0.000000000000   0.000000000000  1.00000000000000
kpoint-folding 3 3 1 
latt-move-scale 1 1 1
latt-scale 1.88973 1.88973 1.88973 
lattice Triclinic 14.0807 14.0807 21.7064 90 90 90
lattice-minimize  \
	dirUpdateScheme      L-BFGS \
	linminMethod         DirUpdateRecommended \
	nIterations          0 \
	history              15 \
	knormThreshold       0 \
	energyDiffThreshold  1e-06 \
	nEnergyDiff          2 \
	alphaTstart          1 \
	alphaTmin            1e-10 \
	updateTestStepSize   yes \
	alphaTreduceFactor   0.1 \
	alphaTincreaseFactor 3 \
	nAlphaAdjustMax      3 \
	wolfeEnergy          0.0001 \
	wolfeGradient        0.9 \
	fdTest               no
lcao-params -1 1e-06 0.0073499
pcm-variant CANDLE
spintype z-spin
subspace-rotation-factor 1 yes
symmetries automatic
symmetry-threshold 0.0001



---------- Setting up symmetries ----------

Found 16 point-group symmetries of the bravais lattice
Found 256 space-group symmetries with basis
Applied RMS atom displacement 9.83785e-15 bohrs to make symmetries exact.

---------- Initializing the Grid ----------
R = 
[    26.6087          0          0  ]
[          0    26.6087          0  ]
[          0          0    41.0191  ]
unit cell volume = 29042.4
G =
[   0.236133          0          0  ]
[          0   0.236133          0  ]
[          0          0   0.153177  ]
Minimum fftbox size, Smin = [  108  108  168  ]
Chosen fftbox size, S = [  108  108  168  ]

---------- Exchange Correlation functional ----------
Initalized PBE GGA exchange.
Initalized PBE GGA correlation.

---------- Setting up pseudopotentials ----------
Width of ionic core gaussian charges (only for fluid interactions / plotting) set to 0.397384

Reading pseudopotential file '/home/guoxy/vasp/jdftx-1.5.0/build/pseudopotentials/GBRV/zr_pbe.uspp':
  Title: Zr.  Created by USPP 7.3.6 on 14-9-2013
  Reference state energy: -49.308156.  12 valence electrons in orbitals:
    |400>  occupation: 2  eigenvalue: -2.002953
    |410>  occupation: 6  eigenvalue: -1.192957
    |420>  occupation: 2  eigenvalue: -0.132269
    |500>  occupation: 2  eigenvalue: -0.163143
    |510>  occupation: 0  eigenvalue: -0.053997
  lMax: 2  lLocal: 3  QijEcut: 5
  6 projectors sampled on a log grid with 625 points:
    l: 0  eig: -2.002953  rCut: 1.8
    l: 0  eig: -0.132269  rCut: 1.8
    l: 1  eig: -1.192956  rCut: 2
    l: 1  eig: 0.150000  rCut: 2
    l: 2  eig: -0.163145  rCut: 2.2
    l: 2  eig: 0.150000  rCut: 2.2
  Partial core density with radius 1.2
  Transforming core density to a uniform radial grid of dG=0.02 with 1113 points.
  Transforming local potential to a uniform radial grid of dG=0.02 with 1113 points.
  Transforming nonlocal projectors to a uniform radial grid of dG=0.02 with 432 points.
  Transforming density augmentations to a uniform radial grid of dG=0.02 with 1113 points.
  Transforming atomic orbitals to a uniform radial grid of dG=0.02 with 432 points.
  Core radius for overlap checks: 2.20 bohrs.

Reading pseudopotential file '/home/guoxy/vasp/jdftx-1.5.0/build/pseudopotentials/GBRV/si_pbe.uspp':
  Title: Si.  Created by USPP 7.3.6 on 14-9-2013
  Reference state energy: -4.599342.  4 valence electrons in orbitals:
    |300>  occupation: 2  eigenvalue: -0.397366
    |310>  occupation: 2  eigenvalue: -0.149981
  lMax: 2  lLocal: 3  QijEcut: 5
  6 projectors sampled on a log grid with 627 points:
    l: 0  eig: -0.397364  rCut: 1.6
    l: 0  eig: 1.000000  rCut: 1.6
    l: 1  eig: -0.149982  rCut: 1.6
    l: 1  eig: 1.000000  rCut: 1.6
    l: 2  eig: -0.100000  rCut: 1.7
    l: 2  eig: 0.100000  rCut: 1.7
  Partial core density with radius 1.45
  Transforming core density to a uniform radial grid of dG=0.02 with 1113 points.
  Transforming local potential to a uniform radial grid of dG=0.02 with 1113 points.
  Transforming nonlocal projectors to a uniform radial grid of dG=0.02 with 432 points.
  Transforming density augmentations to a uniform radial grid of dG=0.02 with 1113 points.
  Transforming atomic orbitals to a uniform radial grid of dG=0.02 with 432 points.
  Core radius for overlap checks: 1.70 bohrs.

Reading pseudopotential file '/home/guoxy/vasp/jdftx-1.5.0/build/pseudopotentials/GBRV/se_pbe.uspp':
  Title: Se.  Created by USPP 7.3.6 on 14-9-2013
  Reference state energy: -21.672887.  6 valence electrons in orbitals:
    |400>  occupation: 2  eigenvalue: -0.635284
    |410>  occupation: 4  eigenvalue: -0.239295
  lMax: 2  lLocal: 3  QijEcut: 5
  6 projectors sampled on a log grid with 625 points:
    l: 0  eig: -0.635278  rCut: 1.5
    l: 0  eig: 0.500000  rCut: 1.5
    l: 1  eig: -0.239295  rCut: 1.5
    l: 1  eig: 0.500000  rCut: 1.5
    l: 2  eig: 0.000000  rCut: 1.8
    l: 2  eig: 1.000000  rCut: 1.8
  Partial core density with radius 1.2
  Transforming core density to a uniform radial grid of dG=0.02 with 1113 points.
  Transforming local potential to a uniform radial grid of dG=0.02 with 1113 points.
  Transforming nonlocal projectors to a uniform radial grid of dG=0.02 with 432 points.
  Transforming density augmentations to a uniform radial grid of dG=0.02 with 1113 points.
  Transforming atomic orbitals to a uniform radial grid of dG=0.02 with 432 points.
  Core radius for overlap checks: 1.80 bohrs.

Initialized 3 species with 96 total atoms.

Folded 1 k-points by 3x3x1 to 9 k-points.

---------- Setting up k-points, bands, fillings ----------
Reduced to 3 k-points under symmetry. 
Computing the number of bands and number of electrons
Calculating initial fillings.
nElectrons: 704.500000   nBands: 672   nStates: 6

----- Setting up reduced wavefunction bases (one per k-point) -----
average nbasis = 124069.667 , ideal nbasis = 124071.433

---------- Setting up coulomb interaction ----------
Fluid mode embedding: using embedded box, but periodic Coulomb kernel.
(Fluid response is responsible for (approximate) separation between periodic images.)
Setting up double-sized grid for truncated Coulomb potentials:
R = 
[    26.6087          0          0  ]
[          0    26.6087          0  ]
[          0          0    82.0383  ]
unit cell volume = 58084.8
G =
[   0.236133          0          0  ]
[          0   0.236133          0  ]
[          0          0  0.0765884  ]
Chosen fftbox size, S = [  108  108  336  ]
Integer grid location selected as the embedding center:
   Grid: [  54  54  84  ]
   Lattice: [  0.5  0.5  0.5  ]
   Cartesian: [  13.3043  13.3043  20.5096  ]
Constructing Wigner-Seitz cell: 6 faces (6 quadrilaterals, 0 hexagons)
Range-separation parameter for embedded mesh potentials due to point charges: 0.626195 bohrs.

Initializing van der Waals corrections
	NOTE: vdW corrections apply only for interactions with fluid.
	Zr:  C6:  427.91 Eh-a0^6  R0: 3.097 a0
	Si:  C6:  160.10 Eh-a0^6  R0: 3.243 a0
	Se:  C6:  219.24 Eh-a0^6  R0: 3.347 a0

---------- Setting up ewald sum ----------
Optimum gaussian width for ewald sums = 7.220254 bohr.
Real space sum over 405 unit cells with max indices [  4  4  2  ]
Reciprocal space sum over 8775 terms with max indices [  7  7  19  ]

---------- Allocating electronic variables ----------
Initializing wave functions:  linear combination of atomic orbitals
Zr pseudo-atom occupations:   s ( 2 2 )  p ( 6 0 )  d ( 2 )
Si pseudo-atom occupations:   s ( 2 )  p ( 2 )
Se pseudo-atom occupations:   s ( 2 )  p ( 4 )
	FillingsUpdate:  mu: -0.239899614  nElectrons: 704.500000  magneticMoment: [ Abs: 2.11845  Tot: +1.96417 ]
LCAOMinimize: Iter:   0  F: -1937.9751541317982628  |grad|_K:  6.082e-03  alpha:  1.000e+00
	FillingsUpdate:  mu: -0.084354399  nElectrons: 704.500000  magneticMoment: [ Abs: 1.60916  Tot: +1.42876 ]
LCAOMinimize: Iter:   1  F: -1945.4158843991895083  |grad|_K:  1.267e-03  alpha:  1.296e-01  linmin: -3.372e-01  cgtest:  1.006e+00  t[s]:    302.26
LCAOMinimize: Encountered beta<0, resetting CG.
	FillingsUpdate:  mu: -0.026481972  nElectrons: 704.500000  magneticMoment: [ Abs: 1.30765  Tot: +1.10996 ]
LCAOMinimize: Iter:   2  F: -1945.8303469196846436  |grad|_K:  2.601e-04  alpha:  1.881e-01  linmin: -5.052e-02  cgtest:  1.422e-01  t[s]:    389.78
	FillingsUpdate:  mu: -0.045066244  nElectrons: 704.500000  magneticMoment: [ Abs: 1.10419  Tot: +0.91377 ]
LCAOMinimize: Iter:   3  F: -1945.8500548881195300  |grad|_K:  5.022e-05  alpha:  2.120e-01  linmin: -3.176e-02  cgtest:  4.837e-02  t[s]:    477.48
	FillingsUpdate:  mu: -0.042537110  nElectrons: 704.500000  magneticMoment: [ Abs: 0.87778  Tot: +0.69734 ]
LCAOMinimize: Iter:   4  F: -1945.8510334271843476  |grad|_K:  2.844e-05  alpha:  2.813e-01  linmin: -7.523e-04  cgtest: -2.109e-02  t[s]:    565.34
	FillingsUpdate:  mu: -0.043257753  nElectrons: 704.500000  magneticMoment: [ Abs: 0.42919  Tot: +0.27042 ]
LCAOMinimize: Iter:   5  F: -1945.8516163341664651  |grad|_K:  1.295e-05  alpha:  5.293e-01  linmin:  1.902e-04  cgtest:  9.040e-04  t[s]:    652.81
	FillingsUpdate:  mu: -0.042171020  nElectrons: 704.500000  magneticMoment: [ Abs: 0.28868  Tot: +0.14697 ]
LCAOMinimize: Iter:   6  F: -1945.8516910808139073  |grad|_K:  7.411e-06  alpha:  3.277e-01  linmin: -8.293e-05  cgtest:  2.640e-03  t[s]:    740.19
	FillingsUpdate:  mu: -0.042746684  nElectrons: 704.500000  magneticMoment: [ Abs: 0.10110  Tot: +0.00771 ]
LCAOMinimize: Iter:   7  F: -1945.8517354888117552  |grad|_K:  4.559e-06  alpha:  5.954e-01  linmin:  7.346e-04  cgtest: -1.425e-03  t[s]:    827.39
	FillingsUpdate:  mu: -0.042623257  nElectrons: 704.500000  magneticMoment: [ Abs: 0.05888  Tot: -0.01330 ]
LCAOMinimize: Iter:   8  F: -1945.8517420243142624  |grad|_K:  1.013e-06  alpha:  2.319e-01  linmin:  3.649e-04  cgtest:  5.103e-03  t[s]:    915.00
	FillingsUpdate:  mu: -0.042725909  nElectrons: 704.500000  magneticMoment: [ Abs: 0.02895  Tot: -0.00741 ]
LCAOMinimize: Iter:   9  F: -1945.8517428792606552  |grad|_K:  9.726e-07  alpha:  6.133e-01  linmin: -1.403e-04  cgtest:  3.893e-04  t[s]:   1002.44
	FillingsUpdate:  mu: -0.042658457  nElectrons: 704.500000  magneticMoment: [ Abs: 0.00476  Tot: -0.00123 ]
LCAOMinimize: Iter:  10  F: -1945.8517433647336929  |grad|_K:  3.005e-07  alpha:  3.776e-01  linmin: -2.469e-05  cgtest: -2.451e-03  t[s]:   1089.32
LCAOMinimize: Converged (|Delta F|<1.000000e-06 for 2 iters).
----- createFluidSolver() ----- (Fluid-side solver setup)
   Initializing fluid molecule 'H2O'
     Initializing site 'O'
       Electron density: proportional to exp(-r/0.36935)*erfc((r-0.51523)/0.36823) with norm 6.826
       Charge density: gaussian nuclear width 0.478731 with net site charge 0.826
       Polarizability: cuspless exponential with width 0.32 and norm 3.73
       Hard sphere radius: 2.57003 bohrs
       Positions in reference frame:
         [ +0.000000 +0.000000 +0.000000 ]
     Initializing site 'H'
       Electron density: proportional to exp(-r/0.34641)*erfc((r-0)/0.390882) with norm 0.587
       Charge density: gaussian nuclear width 0.377945 with net site charge -0.413
       Polarizability: cuspless exponential with width 0.39 and norm 3.3
       Positions in reference frame:
         [ +0.000000 -1.441945 +1.122523 ]
         [ +0.000000 +1.441945 +1.122523 ]
     Net charge: 0   dipole magnitude: 0.927204
     Initializing spherical shell mfKernel with radius 2.61727 Bohr
     deltaS corrections:
       site 'O': -7.54299
       site 'H': -6.83917
   Initializing fluid molecule 'Na+'
     Initializing site 'Na'
       Electron density: proportional to exp(-r/0.19682)*erfc((r-0.71491)/0.41314) with norm 8.1383
       Charge density: gaussian nuclear width 0.365347 with net site charge -1
       Hard sphere radius: 1.86327 bohrs
       Positions in reference frame:
         [ +0.000000 +0.000000 +0.000000 ]
     Net charge: -1   dipole magnitude: 0
     Initializing gaussian mfKernel with width: 1.55004 Bohr
     deltaS corrections:
       site 'Na': -22.3555
   Initializing fluid molecule 'F-'
     Initializing site 'F'
       Electron density: proportional to exp(-r/0.38886)*erfc((r-0)/0.438782) with norm 8
       Charge density: gaussian nuclear width 0.374796 with net site charge 1
       Hard sphere radius: 2.39995 bohrs
       Positions in reference frame:
         [ +0.000000 +0.000000 +0.000000 ]
     Net charge: 1   dipole magnitude: 0
     Initializing gaussian mfKernel with width: 1.59012 Bohr
     deltaS corrections:
       site 'F': -9.04335

Correction to mu due to finite nuclear width = -0.0120257
   Cavity determined by nc: 0.00142 and sigma: 0.707107
   Nonlocal vdW cavity from gaussian model electron density with norm = 8 and sigma = 0.993594 bohr
   Charge asymmetry in cavity with sensitivity pCavity = 36.5 e-bohr/Eh
   Electrostatic cavity expanded by eta = 1.46 bohrs
   Weighted density cavitation model constrained by Nbulk: 0.0049383 bohr^-3, Pvap: 3.14029 kPa, Rvdw: 2.61727 bohr and sigmaBulk: 4.62e-05 Eh/bohr^2 at T: 298 K.
   Weighted density dispersion model using vdW pair potentials with single solvent site with sqrtC6eff: 0.77 SI.


---- Citations for features of the code used in this run ----

   Software package:
      R. Sundararaman, K. Letchworth-Weaver, K.A. Schwarz, D. Gunceler, Y. Ozhabes and T.A. Arias, 'JDFTx: software for joint density-functional theory', SoftwareX 6, 278 (2017)

   gga-PBE exchange-correlation functional:
      J.P. Perdew, K. Burke and M. Ernzerhof, Phys. Rev. Lett. 77, 3865 (1996)

   Pseudopotentials:
      KF Garrity, JW Bennett, KM Rabe and D Vanderbilt, Comput. Mater. Sci. 81, 446 (2014)

   Truncated Coulomb potentials:
      R. Sundararaman and T.A. Arias, Phys. Rev. B 87, 165122 (2013)

   Van der Waals correction pair-potentials:
      S. Grimme, J. Comput. Chem. 27, 1787 (2006)

   Charge-asymmetric nonlocally-determined local-electric (CANDLE) solvation model:
      R. Sundararaman and W.A. Goddard III, J. Chem. Phys. 142, 064107 (2015)

   Total energy minimization with Auxiliary Hamiltonian:
      C. Freysoldt, S. Boeck, and J. Neugebauer, Phys. Rev. B 79, 241103(R) (2009)

This list may not be complete. Please suggest additional citations or
report any other bugs at https://github.com/shankar1729/jdftx/issues

Initialization completed successfully at t[s]:   1112.60

Fluid solver invoked on fresh (partially random / LCAO) wavefunctions
Running a vacuum solve first:

-------- Initial electronic minimization -----------
	FillingsUpdate:  mu: -0.042658457  nElectrons: 704.500000  magneticMoment: [ Abs: 0.00476  Tot: -0.00123 ]
ElecMinimize: Iter:   0  F: -1945.851743364723461  |grad|_K:  5.826e-05  alpha:  1.000e+00
	FillingsUpdate:  mu: +0.011810034  nElectrons: 704.500000  magneticMoment: [ Abs: 0.00162  Tot: -0.00010 ]
	SubspaceRotationAdjust: set factor to 1
ElecMinimize: Iter:   1  F: -1947.552784069815743  |grad|_K:  2.873e-05  alpha:  9.994e-01  linmin: -3.588e-05  t[s]:   1351.60
	FillingsUpdate:  mu: -0.040320825  nElectrons: 704.500000  magneticMoment: [ Abs: 0.00103  Tot: +0.00005 ]
	SubspaceRotationAdjust: set factor to 0.681
ElecMinimize: Iter:   2  F: -1947.697421250943307  |grad|_K:  2.484e-05  alpha:  3.444e-01  linmin: -4.982e-05  t[s]:   1501.02
	FillingsUpdate:  mu: -0.017013145  nElectrons: 704.500000  magneticMoment: [ Abs: 0.00041  Tot: +0.00021 ]
	SubspaceRotationAdjust: set factor to 0.398
ElecMinimize: Iter:   3  F: -1947.842117706274166  |grad|_K:  9.858e-06  alpha:  4.699e-01  linmin:  3.573e-04  t[s]:   1651.44
	FillingsUpdate:  mu: -0.020126636  nElectrons: 704.500000  magneticMoment: [ Abs: 0.00037  Tot: +0.00019 ]
	SubspaceRotationAdjust: set factor to 0.285
ElecMinimize: Iter:   4  F: -1947.875643185517902  |grad|_K:  5.514e-06  alpha:  7.328e-01  linmin:  1.114e-04  t[s]:   1801.95
	FillingsUpdate:  mu: -0.013671538  nElectrons: 704.500000  magneticMoment: [ Abs: 0.00031  Tot: +0.00014 ]
	SubspaceRotationAdjust: set factor to 0.263
ElecMinimize: Iter:   5  F: -1947.887150961412544  |grad|_K:  3.265e-06  alpha:  7.697e-01  linmin:  5.474e-05  t[s]:   1951.90
	FillingsUpdate:  mu: -0.017985787  nElectrons: 704.500000  magneticMoment: [ Abs: 0.00024  Tot: +0.00009 ]
	SubspaceRotationAdjust: set factor to 0.305
ElecMinimize: Iter:   6  F: -1947.891604995482567  |grad|_K:  1.845e-06  alpha:  8.427e-01  linmin:  1.932e-05  t[s]:   2101.61
	FillingsUpdate:  mu: -0.018414413  nElectrons: 704.500000  magneticMoment: [ Abs: 0.00016  Tot: +0.00005 ]
	SubspaceRotationAdjust: set factor to 0.393
ElecMinimize: Iter:   7  F: -1947.893230544622156  |grad|_K:  1.323e-06  alpha:  9.570e-01  linmin:  1.427e-05  t[s]:   2251.83
	FillingsUpdate:  mu: -0.017096518  nElectrons: 704.500000  magneticMoment: [ Abs: 0.00010  Tot: +0.00002 ]
	SubspaceRotationAdjust: set factor to 0.461
ElecMinimize: Iter:   8  F: -1947.893942143943377  |grad|_K:  9.310e-07  alpha:  8.138e-01  linmin:  5.059e-06  t[s]:   2402.11
	FillingsUpdate:  mu: -0.017896427  nElectrons: 704.500000  magneticMoment: [ Abs: 0.00005  Tot: +0.00000 ]
	SubspaceRotationAdjust: set factor to 0.48
ElecMinimize: Iter:   9  F: -1947.894301128652160  |grad|_K:  6.364e-07  alpha:  8.287e-01  linmin:  4.748e-06  t[s]:   2552.24
	FillingsUpdate:  mu: -0.017356348  nElectrons: 704.500000  magneticMoment: [ Abs: 0.00003  Tot: -0.00001 ]
	SubspaceRotationAdjust: set factor to 0.451
ElecMinimize: Iter:  10  F: -1947.894443638725534  |grad|_K:  3.974e-07  alpha:  7.042e-01  linmin:  1.801e-06  t[s]:   2702.22
	FillingsUpdate:  mu: -0.017710742  nElectrons: 704.500000  magneticMoment: [ Abs: 0.00003  Tot: -0.00001 ]
	SubspaceRotationAdjust: set factor to 0.467
ElecMinimize: Iter:  11  F: -1947.894508506984721  |grad|_K:  2.955e-07  alpha:  8.220e-01  linmin:  1.354e-06  t[s]:   2852.01
	FillingsUpdate:  mu: -0.017472020  nElectrons: 704.500000  magneticMoment: [ Abs: 0.00004  Tot: -0.00001 ]
	SubspaceRotationAdjust: set factor to 0.543
ElecMinimize: Iter:  12  F: -1947.894547178853145  |grad|_K:  2.456e-07  alpha:  8.865e-01  linmin:  1.265e-06  t[s]:   3002.06
	FillingsUpdate:  mu: -0.017620284  nElectrons: 704.500000  magneticMoment: [ Abs: 0.00004  Tot: -0.00000 ]
	SubspaceRotationAdjust: set factor to 0.617
ElecMinimize: Iter:  13  F: -1947.894573720260951  |grad|_K:  2.020e-07  alpha:  8.812e-01  linmin:  3.115e-06  t[s]:   3152.26
	FillingsUpdate:  mu: -0.017449996  nElectrons: 704.500000  magneticMoment: [ Abs: 0.00002  Tot: -0.00000 ]
	SubspaceRotationAdjust: set factor to 0.648
ElecMinimize: Iter:  14  F: -1947.894590039594959  |grad|_K:  1.579e-07  alpha:  8.052e-01  linmin:  2.290e-06  t[s]:   3302.42
	FillingsUpdate:  mu: -0.017606508  nElectrons: 704.500000  magneticMoment: [ Abs: 0.00002  Tot: +0.00000 ]
	SubspaceRotationAdjust: set factor to 0.67
ElecMinimize: Iter:  15  F: -1947.894599166165335  |grad|_K:  1.331e-07  alpha:  7.359e-01  linmin:  9.788e-07  t[s]:   3452.57
	FillingsUpdate:  mu: -0.017452741  nElectrons: 704.500000  magneticMoment: [ Abs: 0.00002  Tot: +0.00000 ]
	SubspaceRotationAdjust: set factor to 0.685
ElecMinimize: Iter:  16  F: -1947.894604943722015  |grad|_K:  1.161e-07  alpha:  6.524e-01  linmin:  4.497e-07  t[s]:   3602.85
	FillingsUpdate:  mu: -0.017589990  nElectrons: 704.500000  magneticMoment: [ Abs: 0.00002  Tot: +0.00000 ]
	SubspaceRotationAdjust: set factor to 0.722
ElecMinimize: Iter:  17  F: -1947.894608839002558  |grad|_K:  8.966e-08  alpha:  5.770e-01  linmin:  7.725e-08  t[s]:   3752.00
	FillingsUpdate:  mu: -0.017508891  nElectrons: 704.500000  magneticMoment: [ Abs: 0.00001  Tot: +0.00000 ]
	SubspaceRotationAdjust: set factor to 0.812
ElecMinimize: Iter:  18  F: -1947.894611335962281  |grad|_K:  6.455e-08  alpha:  6.198e-01  linmin:  1.850e-07  t[s]:   3901.93
	FillingsUpdate:  mu: -0.017566019  nElectrons: 704.500000  magneticMoment: [ Abs: 0.00001  Tot: +0.00000 ]
	SubspaceRotationAdjust: set factor to 0.878
ElecMinimize: Iter:  19  F: -1947.894612635937165  |grad|_K:  4.722e-08  alpha:  6.230e-01  linmin:  4.276e-08  t[s]:   4051.87
	FillingsUpdate:  mu: -0.017513010  nElectrons: 704.500000  magneticMoment: [ Abs: 0.00001  Tot: +0.00000 ]
	SubspaceRotationAdjust: set factor to 0.846
ElecMinimize: Iter:  20  F: -1947.894613251074588  |grad|_K:  3.954e-08  alpha:  5.501e-01  linmin:  6.282e-08  t[s]:   4201.59
	FillingsUpdate:  mu: -0.017563205  nElectrons: 704.500000  magneticMoment: [ Abs: 0.00001  Tot: -0.00000 ]
	SubspaceRotationAdjust: set factor to 0.729
ElecMinimize: Iter:  21  F: -1947.894613556731429  |grad|_K:  2.885e-08  alpha:  3.898e-01  linmin:  9.549e-09  t[s]:   4352.15
	FillingsUpdate:  mu: -0.017535003  nElectrons: 704.500000  magneticMoment: [ Abs: 0.00000  Tot: -0.00000 ]
	SubspaceRotationAdjust: set factor to 0.796
ElecMinimize: Iter:  22  F: -1947.894613762733570  |grad|_K:  1.889e-08  alpha:  4.934e-01  linmin: -1.186e-10  t[s]:   4502.76
	FillingsUpdate:  mu: -0.017545810  nElectrons: 704.500000  magneticMoment: [ Abs: 0.00000  Tot: -0.00000 ]
	SubspaceRotationAdjust: set factor to 0.949
ElecMinimize: Iter:  23  F: -1947.894613877138227  |grad|_K:  1.323e-08  alpha:  6.394e-01  linmin:  3.054e-08  t[s]:   4652.95
	FillingsUpdate:  mu: -0.017533711  nElectrons: 704.500000  magneticMoment: [ Abs: 0.00000  Tot: -0.00000 ]
	SubspaceRotationAdjust: set factor to 1.06
ElecMinimize: Iter:  24  F: -1947.894613932465290  |grad|_K:  1.029e-08  alpha:  6.303e-01  linmin:  1.918e-10  t[s]:   4802.69
	FillingsUpdate:  mu: -0.017547276  nElectrons: 704.500000  magneticMoment: [ Abs: 0.00000  Tot: -0.00000 ]
	SubspaceRotationAdjust: set factor to 0.927
ElecMinimize: Iter:  25  F: -1947.894613956124658  |grad|_K:  9.506e-09  alpha:  4.458e-01  linmin:  2.112e-08  t[s]:   4952.74
	FillingsUpdate:  mu: -0.017536646  nElectrons: 704.500000  magneticMoment: [ Abs: 0.00000  Tot: +0.00000 ]
	SubspaceRotationAdjust: set factor to 0.755
ElecMinimize: Iter:  26  F: -1947.894613971015133  |grad|_K:  6.410e-09  alpha:  3.288e-01  linmin:  3.511e-08  t[s]:   5102.84
	FillingsUpdate:  mu: -0.017541961  nElectrons: 704.500000  magneticMoment: [ Abs: 0.00000  Tot: +0.00000 ]
	SubspaceRotationAdjust: set factor to 0.851
ElecMinimize: Iter:  27  F: -1947.894613982768533  |grad|_K:  4.492e-09  alpha:  5.695e-01  linmin: -1.039e-07  t[s]:   5252.24
	FillingsUpdate:  mu: -0.017539717  nElectrons: 704.500000  magneticMoment: [ Abs: 0.00000  Tot: +0.00000 ]
	SubspaceRotationAdjust: set factor to 1.02
ElecMinimize: Iter:  28  F: -1947.894613990343260  |grad|_K:  3.707e-09  alpha:  7.423e-01  linmin:  3.268e-08  t[s]:   5402.58
	FillingsUpdate:  mu: -0.017542313  nElectrons: 704.500000  magneticMoment: [ Abs: 0.00000  Tot: +0.00000 ]
	SubspaceRotationAdjust: set factor to 1.14
ElecMinimize: Iter:  29  F: -1947.894613995122654  |grad|_K:  3.179e-09  alpha:  6.952e-01  linmin: -9.728e-08  t[s]:   5553.08
ElecMinimize: Converged (|Delta F|<1.000000e-08 for 2 iters).
Setting wave functions to eigenvectors of Hamiltonian
Vacuum energy after initial minimize, F = -1947.894613995122654

	Linear fluid (dielectric constant: 78.4, screening length: 5.74355 Bohr) occupying 0.710628 of unit cell:	Completed after 18 iterations at t[s]:   5580.30

-------- Electronic minimization -----------
	Linear fluid (dielectric constant: 78.4, screening length: 5.74355 Bohr) occupying 0.710628 of unit cell:	Completed after 0 iterations at t[s]:   5610.73
	FillingsUpdate:  mu: -0.156573596  nElectrons: 704.500000  magneticMoment: [ Abs: 0.00003  Tot: +0.00000 ]
ElecMinimize: Iter:   0  F: -1947.948257599701037  |grad|_K:  1.335e-06  alpha:  1.000e+00
	Linear fluid (dielectric constant: 78.4, screening length: 5.74355 Bohr) occupying 0.710902 of unit cell:	Completed after 13 iterations at t[s]:   5735.22
	Linear fluid (dielectric constant: 78.4, screening length: 5.74355 Bohr) occupying 0.710678 of unit cell:	Completed after 13 iterations at t[s]:   5785.40
	FillingsUpdate:  mu: -0.158933783  nElectrons: 704.500000  magneticMoment: [ Abs: 0.00008  Tot: +0.00000 ]
	SubspaceRotationAdjust: set factor to 0.799
ElecMinimize: Iter:   1  F: -1947.948411305588479  |grad|_K:  7.658e-07  alpha:  1.727e-01  linmin:  5.547e-07  t[s]:   5850.86
	Linear fluid (dielectric constant: 78.4, screening length: 5.74355 Bohr) occupying 0.710776 of unit cell:	Completed after 2 iterations at t[s]:   5901.40
ElecMinimize: 	Predicted alpha/alphaT>3.000000, increasing alphaT to 5.181491e-01.
	Linear fluid (dielectric constant: 78.4, screening length: 5.74355 Bohr) occupying 0.710968 of unit cell:	Completed after 8 iterations at t[s]:   5948.08
	Linear fluid (dielectric constant: 78.4, screening length: 5.74355 Bohr) occupying 0.710999 of unit cell:	Completed after 2 iterations at t[s]:   5996.00
	FillingsUpdate:  mu: -0.158386064  nElectrons: 704.500000  magneticMoment: [ Abs: 0.00014  Tot: -0.00000 ]
	SubspaceRotationAdjust: set factor to 0.563
ElecMinimize: Iter:   2  F: -1947.948580420849112  |grad|_K:  3.932e-07  alpha:  5.761e-01  linmin: -1.210e-06  t[s]:   6058.66
	Linear fluid (dielectric constant: 78.4, screening length: 5.74355 Bohr) occupying 0.711129 of unit cell:	Completed after 8 iterations at t[s]:   6110.68
	Linear fluid (dielectric constant: 78.4, screening length: 5.74355 Bohr) occupying 0.711097 of unit cell:	Completed after 1 iterations at t[s]:   6158.23
	FillingsUpdate:  mu: -0.157924494  nElectrons: 704.500000  magneticMoment: [ Abs: 0.00013  Tot: -0.00000 ]
	SubspaceRotationAdjust: set factor to 0.343
ElecMinimize: Iter:   3  F: -1947.948614592508193  |grad|_K:  1.477e-07  alpha:  4.334e-01  linmin:  3.994e-07  t[s]:   6220.46
	Linear fluid (dielectric constant: 78.4, screening length: 5.74355 Bohr) occupying 0.711109 of unit cell:	Completed after 3 iterations at t[s]:   6271.01
	Linear fluid (dielectric constant: 78.4, screening length: 5.74355 Bohr) occupying 0.711122 of unit cell:	Completed after 3 iterations at t[s]:   6317.45
	FillingsUpdate:  mu: -0.158178110  nElectrons: 704.500000  magneticMoment: [ Abs: 0.00009  Tot: -0.00000 ]
	SubspaceRotationAdjust: set factor to 0.356
ElecMinimize: Iter:   4  F: -1947.948624673276299  |grad|_K:  9.468e-08  alpha:  9.119e-01  linmin: -2.108e-05  t[s]:   6380.19
	Linear fluid (dielectric constant: 78.4, screening length: 5.74355 Bohr) occupying 0.711131 of unit cell:	Completed after 2 iterations at t[s]:   6431.22
	Linear fluid (dielectric constant: 78.4, screening length: 5.74355 Bohr) occupying 0.711129 of unit cell:	Completed after 0 iterations at t[s]:   6476.76
	FillingsUpdate:  mu: -0.158069975  nElectrons: 704.500000  magneticMoment: [ Abs: 0.00006  Tot: -0.00000 ]
	SubspaceRotationAdjust: set factor to 0.254
ElecMinimize: Iter:   5  F: -1947.948628067630352  |grad|_K:  5.837e-08  alpha:  7.275e-01  linmin:  1.199e-05  t[s]:   6538.65
	Linear fluid (dielectric constant: 78.4, screening length: 5.74355 Bohr) occupying 0.711128 of unit cell:	Completed after 2 iterations at t[s]:   6589.07
	Linear fluid (dielectric constant: 78.4, screening length: 5.74355 Bohr) occupying 0.711128 of unit cell:	Completed after 0 iterations at t[s]:   6634.37
	FillingsUpdate:  mu: -0.158094045  nElectrons: 704.500000  magneticMoment: [ Abs: 0.00003  Tot: -0.00000 ]
	SubspaceRotationAdjust: set factor to 0.226
ElecMinimize: Iter:   6  F: -1947.948628933072996  |grad|_K:  2.749e-08  alpha:  5.923e-01  linmin: -6.377e-06  t[s]:   6696.21
	Linear fluid (dielectric constant: 78.4, screening length: 5.74355 Bohr) occupying 0.711125 of unit cell:	Completed after 0 iterations at t[s]:   6746.31
	Linear fluid (dielectric constant: 78.4, screening length: 5.74355 Bohr) occupying 0.711123 of unit cell:	Completed after 1 iterations at t[s]:   6791.43
	FillingsUpdate:  mu: -0.158106798  nElectrons: 704.500000  magneticMoment: [ Abs: 0.00001  Tot: -0.00000 ]
	SubspaceRotationAdjust: set factor to 0.295
ElecMinimize: Iter:   7  F: -1947.948629316595770  |grad|_K:  1.925e-08  alpha:  1.132e+00  linmin:  4.122e-06  t[s]:   6853.56
	Linear fluid (dielectric constant: 78.4, screening length: 5.74355 Bohr) occupying 0.711117 of unit cell:	Completed after 0 iterations at t[s]:   6903.57
	Linear fluid (dielectric constant: 78.4, screening length: 5.74355 Bohr) occupying 0.711119 of unit cell:	Completed after 0 iterations at t[s]:   6948.31
	FillingsUpdate:  mu: -0.158106466  nElectrons: 704.500000  magneticMoment: [ Abs: 0.00001  Tot: -0.00000 ]
	SubspaceRotationAdjust: set factor to 0.362
ElecMinimize: Iter:   8  F: -1947.948629457063817  |grad|_K:  1.127e-08  alpha:  8.295e-01  linmin:  1.552e-09  t[s]:   7009.72
	Linear fluid (dielectric constant: 78.4, screening length: 5.74355 Bohr) occupying 0.711116 of unit cell:	Completed after 0 iterations at t[s]:   7059.77
	Linear fluid (dielectric constant: 78.4, screening length: 5.74355 Bohr) occupying 0.711116 of unit cell:	Completed after 0 iterations at t[s]:   7104.59
	FillingsUpdate:  mu: -0.158106165  nElectrons: 704.500000  magneticMoment: [ Abs: 0.00001  Tot: -0.00000 ]
	SubspaceRotationAdjust: set factor to 0.439
ElecMinimize: Iter:   9  F: -1947.948629518714597  |grad|_K:  7.745e-09  alpha:  9.685e-01  linmin:  1.189e-09  t[s]:   7167.07
	Linear fluid (dielectric constant: 78.4, screening length: 5.74355 Bohr) occupying 0.711114 of unit cell:	Completed after 2 iterations at t[s]:   7217.65
	Linear fluid (dielectric constant: 78.4, screening length: 5.74355 Bohr) occupying 0.711116 of unit cell:	Completed after 0 iterations at t[s]:   7263.19
ElecMinimize: 	Step increased F by 1.288395e-07, reducing alpha to 9.711750e-03.
	Linear fluid (dielectric constant: 78.4, screening length: 5.74355 Bohr) occupying 0.711116 of unit cell:	Completed after 0 iterations at t[s]:   7361.12
ElecMinimize: 	Step increased F by 1.212541e-07, reducing alpha to 9.711750e-04.
	Linear fluid (dielectric constant: 78.4, screening length: 5.74355 Bohr) occupying 0.711116 of unit cell:	Completed after 0 iterations at t[s]:   7459.25
ElecMinimize: 	Step increased F by 1.205358e-07, reducing alpha to 9.711750e-05.
ElecMinimize: 	Step failed to reduce F after 3 attempts. Quitting step.
ElecMinimize: 	Undoing step.
	Linear fluid (dielectric constant: 78.4, screening length: 5.74355 Bohr) occupying 0.711116 of unit cell:	Completed after 0 iterations at t[s]:   7557.48
ElecMinimize: 	Step failed: resetting search direction.
	FillingsUpdate:  mu: -0.158085186  nElectrons: 704.500000  magneticMoment: [ Abs: 0.00001  Tot: -0.00000 ]
	SubspaceRotationAdjust: set factor to 0.279
ElecMinimize: Iter:  10  F: -1947.948629398163348  |grad|_K:  3.034e-08  alpha:  9.712e-05
	Linear fluid (dielectric constant: 78.4, screening length: 5.74355 Bohr) occupying 0.711115 of unit cell:	Completed after 2 iterations at t[s]:   7669.87
	Linear fluid (dielectric constant: 78.4, screening length: 5.74355 Bohr) occupying 0.711116 of unit cell:	Completed after 2 iterations at t[s]:   7715.59
	FillingsUpdate:  mu: -0.158149628  nElectrons: 704.500000  magneticMoment: [ Abs: 0.00001  Tot: +0.00000 ]
	SubspaceRotationAdjust: set factor to 0.116
	SubspaceRotationAdjust: resetting CG because factor has changed by 0.101068
	Linear fluid (dielectric constant: 78.4, screening length: 5.74355 Bohr) occupying 0.711116 of unit cell:	Completed after 0 iterations at t[s]:   7797.99
ElecMinimize: 	State modified externally: resetting search direction.
ElecMinimize: Iter:  11  F: -1947.948629483283185  |grad|_K:  9.016e-09  alpha:  2.900e-01
	Linear fluid (dielectric constant: 78.4, screening length: 5.74355 Bohr) occupying 0.711116 of unit cell:	Completed after 0 iterations at t[s]:   7909.89
ElecMinimize: 	Predicted alpha/alphaT>3.000000, increasing alphaT to 8.700887e-01.
	Linear fluid (dielectric constant: 78.4, screening length: 5.74355 Bohr) occupying 0.711116 of unit cell:	Completed after 0 iterations at t[s]:   7953.90
	Linear fluid (dielectric constant: 78.4, screening length: 5.74355 Bohr) occupying 0.711116 of unit cell:	Completed after 1 iterations at t[s]:   7999.08
ElecMinimize: 	Step increased F by 5.475431e-08, reducing alpha to 1.894674e-01.
	Linear fluid (dielectric constant: 78.4, screening length: 5.74355 Bohr) occupying 0.711116 of unit cell:	Completed after 0 iterations at t[s]:   8098.10
	FillingsUpdate:  mu: -0.158114716  nElectrons: 704.500000  magneticMoment: [ Abs: 0.00000  Tot: +0.00000 ]
	SubspaceRotationAdjust: set factor to 0.238
ElecMinimize: Iter:  12  F: -1947.948629510919545  |grad|_K:  5.338e-09  alpha:  1.895e-01  linmin:  8.428e-05  t[s]:   8160.26
	Linear fluid (dielectric constant: 78.4, screening length: 5.74355 Bohr) occupying 0.711116 of unit cell:	Completed after 0 iterations at t[s]:   8210.62
ElecMinimize: 	Predicted alpha/alphaT>3.000000, increasing alphaT to 5.684023e-01.
	Linear fluid (dielectric constant: 78.4, screening length: 5.74355 Bohr) occupying 0.711116 of unit cell:	Completed after 0 iterations at t[s]:   8255.06
	Linear fluid (dielectric constant: 78.4, screening length: 5.74355 Bohr) occupying 0.711116 of unit cell:	Completed after 0 iterations at t[s]:   8300.09
	FillingsUpdate:  mu: -0.158114780  nElectrons: 704.500000  magneticMoment: [ Abs: 0.00000  Tot: +0.00000 ]
	SubspaceRotationAdjust: set factor to 0.244
ElecMinimize: Iter:  13  F: -1947.948629524270473  |grad|_K:  5.254e-09  alpha:  1.099e+00  linmin:  1.252e-06  t[s]:   8363.15
	Linear fluid (dielectric constant: 78.4, screening length: 5.74355 Bohr) occupying 0.711116 of unit cell:	Completed after 1 iterations at t[s]:   8413.58
	Linear fluid (dielectric constant: 78.4, screening length: 5.74355 Bohr) occupying 0.711116 of unit cell:	Completed after 0 iterations at t[s]:   8458.94
ElecMinimize: 	Step increased F by 4.401068e-08, reducing alpha to 1.761247e-02.
	Linear fluid (dielectric constant: 78.4, screening length: 5.74355 Bohr) occupying 0.711116 of unit cell:	Completed after 0 iterations at t[s]:   8557.20
ElecMinimize: 	Step increased F by 4.271510e-08, reducing alpha to 1.761247e-03.
	Linear fluid (dielectric constant: 78.4, screening length: 5.74355 Bohr) occupying 0.711116 of unit cell:	Completed after 0 iterations at t[s]:   8655.54
ElecMinimize: 	Step increased F by 4.261665e-08, reducing alpha to 1.761247e-04.
ElecMinimize: 	Step failed to reduce F after 3 attempts. Quitting step.
ElecMinimize: 	Undoing step.
	Linear fluid (dielectric constant: 78.4, screening length: 5.74355 Bohr) occupying 0.711116 of unit cell:	Completed after 0 iterations at t[s]:   8754.05
ElecMinimize: 	Step failed: resetting search direction.
	FillingsUpdate:  mu: -0.158117174  nElectrons: 704.500000  magneticMoment: [ Abs: 0.00000  Tot: +0.00000 ]
	SubspaceRotationAdjust: set factor to 0.194
ElecMinimize: Iter:  14  F: -1947.948629481635635  |grad|_K:  4.301e-09  alpha:  1.761e-04
	Linear fluid (dielectric constant: 78.4, screening length: 5.74355 Bohr) occupying 0.711116 of unit cell:	Completed after 0 iterations at t[s]:   8866.35
	Linear fluid (dielectric constant: 78.4, screening length: 5.74355 Bohr) occupying 0.711116 of unit cell:	Completed after 0 iterations at t[s]:   8911.34
	FillingsUpdate:  mu: -0.158117162  nElectrons: 704.500000  magneticMoment: [ Abs: 0.00000  Tot: +0.00000 ]
	SubspaceRotationAdjust: set factor to 0.28
ElecMinimize: Iter:  15  F: -1947.948629488934102  |grad|_K:  2.590e-09  alpha:  7.850e-01  linmin:  1.309e-07  t[s]:   8973.55
	Linear fluid (dielectric constant: 78.4, screening length: 5.74355 Bohr) occupying 0.711116 of unit cell:	Completed after 0 iterations at t[s]:   9024.24
	Linear fluid (dielectric constant: 78.4, screening length: 5.74355 Bohr) occupying 0.711116 of unit cell:	Completed after 0 iterations at t[s]:   9069.37
	FillingsUpdate:  mu: -0.158117181  nElectrons: 704.500000  magneticMoment: [ Abs: 0.00000  Tot: +0.00000 ]
	SubspaceRotationAdjust: set factor to 0.346
ElecMinimize: Iter:  16  F: -1947.948629492614145  |grad|_K:  2.503e-09  alpha:  1.116e+00  linmin:  1.310e-07  t[s]:   9131.21
ElecMinimize: Converged (|Delta F|<1.000000e-08 for 2 iters).
Setting wave functions to eigenvectors of Hamiltonian
Single-point solvation energy estimate, DeltaF = -0.054015497491491

# Ionic positions in lattice coordinates:
ion Zr   0.125000000000000   0.000000000000000   0.600463993117415 1
ion Zr   0.000000000000000   0.125000000000000   0.399535992215919 1
ion Zr   0.375000000000000   0.000000000000000   0.600463993117415 1
ion Zr   0.250000000000000   0.125000000000000   0.399535992215919 1
ion Zr   0.625000000000000   0.000000000000000   0.600463993117415 1
ion Zr   0.500000000000000   0.125000000000000   0.399535992215919 1
ion Zr   0.875000000000000   0.000000000000000   0.600463993117415 1
ion Zr   0.750000000000000   0.125000000000000   0.399535992215919 1
ion Zr   0.125000000000000   0.250000000000000   0.600463993117415 1
ion Zr   0.000000000000000   0.375000000000000   0.399535992215919 1
ion Zr   0.375000000000000   0.250000000000000   0.600463993117415 1
ion Zr   0.250000000000000   0.375000000000000   0.399535992215919 1
ion Zr   0.625000000000000   0.250000000000000   0.600463993117415 1
ion Zr   0.500000000000000   0.375000000000000   0.399535992215919 1
ion Zr   0.875000000000000   0.250000000000000   0.600463993117415 1
ion Zr   0.750000000000000   0.375000000000000   0.399535992215919 1
ion Zr   0.125000000000000   0.500000000000000   0.600463993117415 1
ion Zr   0.000000000000000   0.625000000000000   0.399535992215919 1
ion Zr   0.375000000000000   0.500000000000000   0.600463993117415 1
ion Zr   0.250000000000000   0.625000000000000   0.399535992215919 1
ion Zr   0.625000000000000   0.500000000000000   0.600463993117415 1
ion Zr   0.500000000000000   0.625000000000000   0.399535992215919 1
ion Zr   0.875000000000000   0.500000000000000   0.600463993117415 1
ion Zr   0.750000000000000   0.625000000000000   0.399535992215919 1
ion Zr   0.125000000000000   0.750000000000000   0.600463993117415 1
ion Zr   0.000000000000000   0.875000000000000   0.399535992215919 1
ion Zr   0.375000000000000   0.750000000000000   0.600463993117415 1
ion Zr   0.250000000000000   0.875000000000000   0.399535992215919 1
ion Zr   0.625000000000000   0.750000000000000   0.600463993117415 1
ion Zr   0.500000000000000   0.875000000000000   0.399535992215919 1
ion Zr   0.875000000000000   0.750000000000000   0.600463993117415 1
ion Zr   0.750000000000000   0.875000000000000   0.399535992215919 1
ion Si   0.000000000000000   0.000000000000000   0.499999992666667 1
ion Si   0.125000000000000   0.125000000000000   0.499999992666667 1
ion Si   0.250000000000000   0.000000000000000   0.499999992666667 1
ion Si   0.375000000000000   0.125000000000000   0.499999992666667 1
ion Si   0.500000000000000   0.000000000000000   0.499999992666667 1
ion Si   0.625000000000000   0.125000000000000   0.499999992666667 1
ion Si   0.750000000000000   0.000000000000000   0.499999992666667 1
ion Si   0.875000000000000   0.125000000000000   0.499999992666667 1
ion Si   0.000000000000000   0.250000000000000   0.499999992666667 1
ion Si   0.125000000000000   0.375000000000000   0.499999992666667 1
ion Si   0.250000000000000   0.250000000000000   0.499999992666667 1
ion Si   0.375000000000000   0.375000000000000   0.499999992666667 1
ion Si   0.500000000000000   0.250000000000000   0.499999992666667 1
ion Si   0.625000000000000   0.375000000000000   0.499999992666667 1
ion Si   0.750000000000000   0.250000000000000   0.499999992666667 1
ion Si   0.875000000000000   0.375000000000000   0.499999992666667 1
ion Si   0.000000000000000   0.500000000000000   0.499999992666667 1
ion Si   0.125000000000000   0.625000000000000   0.499999992666667 1
ion Si   0.250000000000000   0.500000000000000   0.499999992666667 1
ion Si   0.375000000000000   0.625000000000000   0.499999992666667 1
ion Si   0.500000000000000   0.500000000000000   0.499999992666667 1
ion Si   0.625000000000000   0.625000000000000   0.499999992666667 1
ion Si   0.750000000000000   0.500000000000000   0.499999992666667 1
ion Si   0.875000000000000   0.625000000000000   0.499999992666667 1
ion Si   0.000000000000000   0.750000000000000   0.499999992666667 1
ion Si   0.125000000000000   0.875000000000000   0.499999992666667 1
ion Si   0.250000000000000   0.750000000000000   0.499999992666667 1
ion Si   0.375000000000000   0.875000000000000   0.499999992666667 1
ion Si   0.500000000000000   0.750000000000000   0.499999992666667 1
ion Si   0.625000000000000   0.875000000000000   0.499999992666667 1
ion Si   0.750000000000000   0.750000000000000   0.499999992666667 1
ion Si   0.875000000000000   0.875000000000000   0.499999992666667 1
ion Se   0.000000000000000   0.125000000000000   0.655072542915365 1
ion Se   0.125000000000000   0.000000000000000   0.344927442417968 1
ion Se   0.250000000000000   0.125000000000000   0.655072542915365 1
ion Se   0.375000000000000   0.000000000000000   0.344927442417968 1
ion Se   0.500000000000000   0.125000000000000   0.655072542915365 1
ion Se   0.625000000000000   0.000000000000000   0.344927442417968 1
ion Se   0.750000000000000   0.125000000000000   0.655072542915365 1
ion Se   0.875000000000000   0.000000000000000   0.344927442417968 1
ion Se   0.000000000000000   0.375000000000000   0.655072542915365 1
ion Se   0.125000000000000   0.250000000000000   0.344927442417968 1
ion Se   0.250000000000000   0.375000000000000   0.655072542915365 1
ion Se   0.375000000000000   0.250000000000000   0.344927442417968 1
ion Se   0.500000000000000   0.375000000000000   0.655072542915365 1
ion Se   0.625000000000000   0.250000000000000   0.344927442417968 1
ion Se   0.750000000000000   0.375000000000000   0.655072542915365 1
ion Se   0.875000000000000   0.250000000000000   0.344927442417968 1
ion Se   0.000000000000000   0.625000000000000   0.655072542915365 1
ion Se   0.125000000000000   0.500000000000000   0.344927442417968 1
ion Se   0.250000000000000   0.625000000000000   0.655072542915365 1
ion Se   0.375000000000000   0.500000000000000   0.344927442417968 1
ion Se   0.500000000000000   0.625000000000000   0.655072542915365 1
ion Se   0.625000000000000   0.500000000000000   0.344927442417968 1
ion Se   0.750000000000000   0.625000000000000   0.655072542915365 1
ion Se   0.875000000000000   0.500000000000000   0.344927442417968 1
ion Se   0.000000000000000   0.875000000000000   0.655072542915365 1
ion Se   0.125000000000000   0.750000000000000   0.344927442417968 1
ion Se   0.250000000000000   0.875000000000000   0.655072542915365 1
ion Se   0.375000000000000   0.750000000000000   0.344927442417968 1
ion Se   0.500000000000000   0.875000000000000   0.655072542915365 1
ion Se   0.625000000000000   0.750000000000000   0.344927442417968 1
ion Se   0.750000000000000   0.875000000000000   0.655072542915365 1
ion Se   0.875000000000000   0.750000000000000   0.344927442417968 1


# Forces in Lattice coordinates:
force Zr  -0.000000000000000   0.000000000000000  -0.038525022465685 1
force Zr  -0.000000000000000  -0.000000000000000   0.038525022465457 1
force Zr   0.000000000000000   0.000000000000000  -0.038525022465685 1
force Zr  -0.000000000000000  -0.000000000000000   0.038525022465457 1
force Zr   0.000000000000000   0.000000000000000  -0.038525022465457 1
force Zr   0.000000000000000   0.000000000000000   0.038525022465457 1
force Zr   0.000000000000000   0.000000000000000  -0.038525022465685 1
force Zr  -0.000000000000000  -0.000000000000000   0.038525022465457 1
force Zr   0.000000000000000   0.000000000000000  -0.038525022465458 1
force Zr   0.000000000000000  -0.000000000000000   0.038525022465457 1
force Zr   0.000000000000000   0.000000000000000  -0.038525022465458 1
force Zr  -0.000000000000000  -0.000000000000000   0.038525022465457 1
force Zr  -0.000000000000000   0.000000000000000  -0.038525022465458 1
force Zr   0.000000000000000   0.000000000000000   0.038525022465457 1
force Zr   0.000000000000000   0.000000000000000  -0.038525022465457 1
force Zr   0.000000000000000  -0.000000000000000   0.038525022465457 1
force Zr   0.000000000000000   0.000000000000000  -0.038525022465457 1
force Zr   0.000000000000000  -0.000000000000000   0.038525022465457 1
force Zr   0.000000000000000   0.000000000000000  -0.038525022465457 1
force Zr  -0.000000000000000  -0.000000000000000   0.038525022465457 1
force Zr  -0.000000000000000   0.000000000000000  -0.038525022465685 1
force Zr  -0.000000000000000  -0.000000000000000   0.038525022465457 1
force Zr   0.000000000000000   0.000000000000000  -0.038525022465684 1
force Zr  -0.000000000000000   0.000000000000000   0.038525022465457 1
force Zr   0.000000000000000   0.000000000000000  -0.038525022465457 1
force Zr  -0.000000000000000   0.000000000000000   0.038525022465457 1
force Zr   0.000000000000000  -0.000000000000000  -0.038525022465685 1
force Zr  -0.000000000000000   0.000000000000000   0.038525022465457 1
force Zr   0.000000000000000   0.000000000000000  -0.038525022465457 1
force Zr  -0.000000000000000   0.000000000000000   0.038525022465457 1
force Zr   0.000000000000000   0.000000000000000  -0.038525022465457 1
force Zr  -0.000000000000000   0.000000000000000   0.038525022465457 1
force Si  -0.000000000000000   0.000000000000000   0.000000000000000 1
force Si   0.000000000000000  -0.000000000000000   0.000000000000000 1
force Si  -0.000000000000000   0.000000000000000   0.000000000000000 1
force Si   0.000000000000000  -0.000000000000000   0.000000000000000 1
force Si  -0.000000000000000   0.000000000000000  -0.000000000000000 1
force Si  -0.000000000000000  -0.000000000000000   0.000000000000000 1
force Si  -0.000000000000000   0.000000000000000   0.000000000000000 1
force Si   0.000000000000000  -0.000000000000000   0.000000000000000 1
force Si  -0.000000000000000   0.000000000000000   0.000000000000000 1
force Si   0.000000000000000   0.000000000000000  -0.000000000000000 1
force Si  -0.000000000000000   0.000000000000000   0.000000000000000 1
force Si   0.000000000000000  -0.000000000000000  -0.000000000000000 1
force Si  -0.000000000000000   0.000000000000000   0.000000000000000 1
force Si  -0.000000000000000  -0.000000000000000  -0.000000000000000 1
force Si  -0.000000000000000   0.000000000000000  -0.000000000000000 1
force Si   0.000000000000000  -0.000000000000000   0.000000000000000 1
force Si  -0.000000000000000   0.000000000000000   0.000000000000000 1
force Si   0.000000000000000  -0.000000000000000  -0.000000000000000 1
force Si  -0.000000000000000   0.000000000000000  -0.000000000000000 1
force Si   0.000000000000000  -0.000000000000000   0.000000000000000 1
force Si  -0.000000000000000   0.000000000000000  -0.000000000000000 1
force Si  -0.000000000000000  -0.000000000000000  -0.000000000000000 1
force Si  -0.000000000000000   0.000000000000000  -0.000000000000000 1
force Si   0.000000000000000  -0.000000000000000  -0.000000000000000 1
force Si  -0.000000000000000   0.000000000000000   0.000000000000000 1
force Si   0.000000000000000  -0.000000000000000   0.000000000000000 1
force Si  -0.000000000000000   0.000000000000000  -0.000000000000000 1
force Si  -0.000000000000000   0.000000000000000   0.000000000000000 1
force Si   0.000000000000000   0.000000000000000  -0.000000000000000 1
force Si  -0.000000000000000  -0.000000000000000   0.000000000000000 1
force Si  -0.000000000000000   0.000000000000000  -0.000000000000000 1
force Si   0.000000000000000  -0.000000000000000  -0.000000000000000 1
force Se  -0.000000000000000  -0.000000000000000   0.026910070724937 1
force Se   0.000000000000000   0.000000000000000  -0.026910070725052 1
force Se  -0.000000000000000  -0.000000000000000   0.026910070725050 1
force Se   0.000000000000000   0.000000000000000  -0.026910070724940 1
force Se   0.000000000000000  -0.000000000000000   0.026910070724936 1
force Se   0.000000000000000  -0.000000000000000  -0.026910070725052 1
force Se  -0.000000000000000  -0.000000000000000   0.026910070724936 1
force Se   0.000000000000000  -0.000000000000000  -0.026910070724824 1
force Se  -0.000000000000000  -0.000000000000000   0.026910070724938 1
force Se   0.000000000000000   0.000000000000000  -0.026910070724938 1
force Se  -0.000000000000000  -0.000000000000000   0.026910070724938 1
force Se   0.000000000000000   0.000000000000000  -0.026910070724938 1
force Se  -0.000000000000000  -0.000000000000000   0.026910070725051 1
force Se   0.000000000000000   0.000000000000000  -0.026910070724939 1
force Se  -0.000000000000000   0.000000000000000   0.026910070724936 1
force Se   0.000000000000000  -0.000000000000000  -0.026910070724938 1
force Se  -0.000000000000000   0.000000000000000   0.026910070725052 1
force Se  -0.000000000000000   0.000000000000000  -0.026910070724935 1
force Se   0.000000000000000  -0.000000000000000   0.026910070724938 1
force Se   0.000000000000000   0.000000000000000  -0.026910070724937 1
force Se   0.000000000000000  -0.000000000000000   0.026910070724938 1
force Se  -0.000000000000000  -0.000000000000000  -0.026910070724936 1
force Se  -0.000000000000000  -0.000000000000000   0.026910070725050 1
force Se  -0.000000000000000  -0.000000000000000  -0.026910070725051 1
force Se  -0.000000000000000  -0.000000000000000   0.026910070724936 1
force Se  -0.000000000000000   0.000000000000000  -0.026910070725051 1
force Se   0.000000000000000  -0.000000000000000   0.026910070724937 1
force Se   0.000000000000000   0.000000000000000  -0.026910070724937 1
force Se  -0.000000000000000  -0.000000000000000   0.026910070725051 1
force Se   0.000000000000000  -0.000000000000000  -0.026910070725050 1
force Se  -0.000000000000000  -0.000000000000000   0.026910070724935 1
force Se   0.000000000000000  -0.000000000000000  -0.026910070725052 1

# Energy components:
   A_diel =       -0.0483708243479162
   Eewald =    18049.5771535544081416
       EH =    19672.2244165539923415
     Eloc =   -40214.9260510339809116
      Enl =      286.6649161640954162
      Exc =     -831.5178829997284993
 Exc_core =      493.5807696735311083
       KE =      596.5713903762567725
  MuShift =       -0.0060128373477427
-------------------------------------
     Etot =    -1947.8796713731219370
       TS =        0.0689581194921913
-------------------------------------
        F =    -1947.9486294926141454

IonicMinimize: Iter:   0  F: -1947.948629492614145  |grad|_K:  3.819e-04  t[s]:   9173.17

#--- Lowdin population analysis ---
# oxidation-state Zr -0.452 -0.452 -0.452 -0.452 -0.452 -0.452 -0.452 -0.452 -0.452 -0.452 -0.452 -0.452 -0.452 -0.452 -0.452 -0.452 -0.452 -0.452 -0.452 -0.452 -0.452 -0.452 -0.452 -0.452 -0.452 -0.452 -0.452 -0.452 -0.452 -0.452 -0.452 -0.452
# magnetic-moments Zr +0.000 +0.000 +0.000 +0.000 +0.000 +0.000 +0.000 +0.000 +0.000 +0.000 +0.000 +0.000 +0.000 +0.000 +0.000 +0.000 +0.000 +0.000 +0.000 +0.000 +0.000 +0.000 +0.000 +0.000 +0.000 +0.000 +0.000 +0.000 +0.000 +0.000 +0.000 +0.000
# oxidation-state Si +0.315 +0.315 +0.315 +0.315 +0.315 +0.315 +0.315 +0.315 +0.315 +0.315 +0.315 +0.315 +0.315 +0.315 +0.315 +0.315 +0.315 +0.315 +0.315 +0.315 +0.315 +0.315 +0.315 +0.315 +0.315 +0.315 +0.315 +0.315 +0.315 +0.315 +0.315 +0.315
# magnetic-moments Si -0.000 -0.000 -0.000 -0.000 -0.000 -0.000 -0.000 -0.000 -0.000 -0.000 -0.000 -0.000 -0.000 -0.000 -0.000 -0.000 -0.000 -0.000 -0.000 -0.000 -0.000 -0.000 -0.000 -0.000 -0.000 -0.000 -0.000 -0.000 -0.000 -0.000 -0.000 -0.000
# oxidation-state Se +0.200 +0.200 +0.200 +0.200 +0.200 +0.200 +0.200 +0.200 +0.200 +0.200 +0.200 +0.200 +0.200 +0.200 +0.200 +0.200 +0.200 +0.200 +0.200 +0.200 +0.200 +0.200 +0.200 +0.200 +0.200 +0.200 +0.200 +0.200 +0.200 +0.200 +0.200 +0.200
# magnetic-moments Se +0.000 +0.000 +0.000 +0.000 +0.000 +0.000 +0.000 +0.000 +0.000 +0.000 +0.000 +0.000 +0.000 +0.000 +0.000 +0.000 +0.000 +0.000 +0.000 +0.000 +0.000 +0.000 +0.000 +0.000 +0.000 +0.000 +0.000 +0.000 +0.000 +0.000 +0.000 +0.000

	Linear fluid (dielectric constant: 78.4, screening length: 5.74355 Bohr) occupying 0.711098 of unit cell:	Completed after 2 iterations at t[s]:   9226.86

-------- Electronic minimization -----------
	Linear fluid (dielectric constant: 78.4, screening length: 5.74355 Bohr) occupying 0.711098 of unit cell:	Completed after 0 iterations at t[s]:   9255.11
	FillingsUpdate:  mu: -0.158155014  nElectrons: 704.500000  magneticMoment: [ Abs: 0.00004  Tot: +0.00000 ]
ElecMinimize: Iter:   0  F: -1947.948653367089264  |grad|_K:  1.107e-07  alpha:  1.000e+00
	Linear fluid (dielectric constant: 78.4, screening length: 5.74355 Bohr) occupying 0.711099 of unit cell:	Completed after 3 iterations at t[s]:   9378.46
	Linear fluid (dielectric constant: 78.4, screening length: 5.74355 Bohr) occupying 0.711100 of unit cell:	Completed after 2 iterations at t[s]:   9424.79
	FillingsUpdate:  mu: -0.158345978  nElectrons: 704.500000  magneticMoment: [ Abs: 0.00003  Tot: +0.00000 ]
	SubspaceRotationAdjust: set factor to 0.282
ElecMinimize: Iter:   1  F: -1947.948661997480485  |grad|_K:  1.147e-07  alpha:  1.399e+00  linmin: -1.670e-04  t[s]:   9488.14
	Linear fluid (dielectric constant: 78.4, screening length: 5.74355 Bohr) occupying 0.711109 of unit cell:	Completed after 6 iterations at t[s]:   9539.97
	Linear fluid (dielectric constant: 78.4, screening length: 5.74355 Bohr) occupying 0.711105 of unit cell:	Completed after 2 iterations at t[s]:   9587.17
	FillingsUpdate:  mu: -0.158079118  nElectrons: 704.500000  magneticMoment: [ Abs: 0.00002  Tot: +0.00000 ]
	SubspaceRotationAdjust: set factor to 0.187
ElecMinimize: Iter:   2  F: -1947.948666619928872  |grad|_K:  4.896e-08  alpha:  6.733e-01  linmin:  1.128e-04  t[s]:   9649.96
	Linear fluid (dielectric constant: 78.4, screening length: 5.74355 Bohr) occupying 0.711104 of unit cell:	Completed after 0 iterations at t[s]:   9700.28
	Linear fluid (dielectric constant: 78.4, screening length: 5.74355 Bohr) occupying 0.711104 of unit cell:	Completed after 2 iterations at t[s]:   9745.62
	FillingsUpdate:  mu: -0.158194265  nElectrons: 704.500000  magneticMoment: [ Abs: 0.00001  Tot: +0.00000 ]
	SubspaceRotationAdjust: set factor to 0.137
ElecMinimize: Iter:   3  F: -1947.948667379659810  |grad|_K:  2.353e-08  alpha:  9.966e-01  linmin:  3.323e-04  t[s]:   9808.59
	Linear fluid (dielectric constant: 78.4, screening length: 5.74355 Bohr) occupying 0.711104 of unit cell:	Completed after 0 iterations at t[s]:   9858.71
	Linear fluid (dielectric constant: 78.4, screening length: 5.74355 Bohr) occupying 0.711104 of unit cell:	Completed after 0 iterations at t[s]:   9903.77
	FillingsUpdate:  mu: -0.158194096  nElectrons: 704.500000  magneticMoment: [ Abs: 0.00000  Tot: +0.00000 ]
	SubspaceRotationAdjust: set factor to 0.201
ElecMinimize: Iter:   4  F: -1947.948667570873113  |grad|_K:  1.324e-08  alpha:  9.192e-01  linmin: -5.832e-08  t[s]:   9965.37
	Linear fluid (dielectric constant: 78.4, screening length: 5.74355 Bohr) occupying 0.711104 of unit cell:	Completed after 2 iterations at t[s]:  10015.74
	Linear fluid (dielectric constant: 78.4, screening length: 5.74355 Bohr) occupying 0.711104 of unit cell:	Completed after 0 iterations at t[s]:  10061.76
ElecMinimize: 	Step increased F by 7.103836e-08, reducing alpha to 2.496971e-02.
	Linear fluid (dielectric constant: 78.4, screening length: 5.74355 Bohr) occupying 0.711104 of unit cell:	Completed after 0 iterations at t[s]:  10159.48
ElecMinimize: 	Step increased F by 6.211644e-08, reducing alpha to 2.496971e-03.
	Linear fluid (dielectric constant: 78.4, screening length: 5.74355 Bohr) occupying 0.711104 of unit cell:	Completed after 0 iterations at t[s]:  10258.20
ElecMinimize: 	Step increased F by 6.158916e-08, reducing alpha to 2.496971e-04.
ElecMinimize: 	Step failed to reduce F after 3 attempts. Quitting step.
ElecMinimize: 	Undoing step.
	Linear fluid (dielectric constant: 78.4, screening length: 5.74355 Bohr) occupying 0.711104 of unit cell:	Completed after 0 iterations at t[s]:  10356.62
ElecMinimize: 	Step failed: resetting search direction.
	FillingsUpdate:  mu: -0.158172284  nElectrons: 704.500000  magneticMoment: [ Abs: 0.00000  Tot: +0.00000 ]
	SubspaceRotationAdjust: set factor to 0.188
ElecMinimize: Iter:   5  F: -1947.948667509255301  |grad|_K:  1.534e-08  alpha:  2.497e-04
	Linear fluid (dielectric constant: 78.4, screening length: 5.74355 Bohr) occupying 0.711104 of unit cell:	Completed after 1 iterations at t[s]:  10469.28
	Linear fluid (dielectric constant: 78.4, screening length: 5.74355 Bohr) occupying 0.711104 of unit cell:	Completed after 0 iterations at t[s]:  10515.48
	FillingsUpdate:  mu: -0.158184138  nElectrons: 704.500000  magneticMoment: [ Abs: 0.00000  Tot: +0.00000 ]
	SubspaceRotationAdjust: set factor to 0.188
ElecMinimize: Iter:   6  F: -1947.948667520678327  |grad|_K:  5.887e-09  alpha:  4.298e-01  linmin: -2.923e-05  t[s]:  10578.44
	Linear fluid (dielectric constant: 78.4, screening length: 5.74355 Bohr) occupying 0.711104 of unit cell:	Completed after 0 iterations at t[s]:  10628.66
	Linear fluid (dielectric constant: 78.4, screening length: 5.74355 Bohr) occupying 0.711105 of unit cell:	Completed after 0 iterations at t[s]:  10673.71
	FillingsUpdate:  mu: -0.158184120  nElectrons: 704.500000  magneticMoment: [ Abs: 0.00000  Tot: +0.00000 ]
	SubspaceRotationAdjust: set factor to 0.238
ElecMinimize: Iter:   7  F: -1947.948667541504619  |grad|_K:  5.254e-09  alpha:  1.127e+00  linmin: -1.997e-06  t[s]:  10735.78
	Linear fluid (dielectric constant: 78.4, screening length: 5.74355 Bohr) occupying 0.711105 of unit cell:	Completed after 0 iterations at t[s]:  10786.25
	Linear fluid (dielectric constant: 78.4, screening length: 5.74355 Bohr) occupying 0.711105 of unit cell:	Completed after 0 iterations at t[s]:  10831.41
ElecMinimize: 	Step increased F by 6.378059e-09, reducing alpha to 1.538672e-01.
	Linear fluid (dielectric constant: 78.4, screening length: 5.74355 Bohr) occupying 0.711105 of unit cell:	Completed after 0 iterations at t[s]:  10929.96
ElecMinimize: 	Step increased F by 1.498756e-08, reducing alpha to 1.538672e-02.
	Linear fluid (dielectric constant: 78.4, screening length: 5.74355 Bohr) occupying 0.711105 of unit cell:	Completed after 0 iterations at t[s]:  11028.13
ElecMinimize: 	Step increased F by 1.774924e-08, reducing alpha to 1.538672e-03.
ElecMinimize: 	Step failed to reduce F after 3 attempts. Quitting step.
ElecMinimize: 	Undoing step.
	Linear fluid (dielectric constant: 78.4, screening length: 5.74355 Bohr) occupying 0.711105 of unit cell:	Completed after 0 iterations at t[s]:  11126.36
ElecMinimize: 	Step failed: resetting search direction.
	FillingsUpdate:  mu: -0.158185568  nElectrons: 704.500000  magneticMoment: [ Abs: 0.00000  Tot: +0.00000 ]
	SubspaceRotationAdjust: set factor to 0.331
ElecMinimize: Iter:   8  F: -1947.948667523725589  |grad|_K:  4.834e-09  alpha:  1.539e-03
	Linear fluid (dielectric constant: 78.4, screening length: 5.74355 Bohr) occupying 0.711105 of unit cell:	Completed after 0 iterations at t[s]:  11237.89
	Linear fluid (dielectric constant: 78.4, screening length: 5.74355 Bohr) occupying 0.711105 of unit cell:	Completed after 0 iterations at t[s]:  11282.49
	FillingsUpdate:  mu: -0.158185577  nElectrons: 704.500000  magneticMoment: [ Abs: 0.00000  Tot: +0.00000 ]
	SubspaceRotationAdjust: set factor to 0.315
ElecMinimize: Iter:   9  F: -1947.948667534472634  |grad|_K:  3.886e-09  alpha:  9.226e-01  linmin:  1.325e-08  t[s]:  11344.81
	Linear fluid (dielectric constant: 78.4, screening length: 5.74355 Bohr) occupying 0.711105 of unit cell:	Completed after 0 iterations at t[s]:  11395.22
	Linear fluid (dielectric constant: 78.4, screening length: 5.74355 Bohr) occupying 0.711106 of unit cell:	Completed after 0 iterations at t[s]:  11439.92
	FillingsUpdate:  mu: -0.158185625  nElectrons: 704.500000  magneticMoment: [ Abs: 0.00000  Tot: +0.00000 ]
	SubspaceRotationAdjust: set factor to 0.394
ElecMinimize: Iter:  10  F: -1947.948667545762419  |grad|_K:  3.647e-09  alpha:  1.499e+00  linmin:  2.764e-07  t[s]:  11502.83
	Linear fluid (dielectric constant: 78.4, screening length: 5.74355 Bohr) occupying 0.711107 of unit cell:	Completed after 0 iterations at t[s]:  11553.30
	Linear fluid (dielectric constant: 78.4, screening length: 5.74355 Bohr) occupying 0.711106 of unit cell:	Completed after 0 iterations at t[s]:  11598.30
	FillingsUpdate:  mu: -0.158185708  nElectrons: 704.500000  magneticMoment: [ Abs: 0.00000  Tot: -0.00000 ]
	SubspaceRotationAdjust: set factor to 0.415
ElecMinimize: Iter:  11  F: -1947.948667550808523  |grad|_K:  1.908e-09  alpha:  7.781e-01  linmin: -3.260e-08  t[s]:  11660.60
	Linear fluid (dielectric constant: 78.4, screening length: 5.74355 Bohr) occupying 0.711106 of unit cell:	Completed after 0 iterations at t[s]:  11710.70
	Linear fluid (dielectric constant: 78.4, screening length: 5.74355 Bohr) occupying 0.711106 of unit cell:	Completed after 0 iterations at t[s]:  11755.85
	FillingsUpdate:  mu: -0.158185754  nElectrons: 704.500000  magneticMoment: [ Abs: 0.00000  Tot: -0.00000 ]
	SubspaceRotationAdjust: set factor to 0.517
ElecMinimize: Iter:  12  F: -1947.948667551943117  |grad|_K:  8.557e-10  alpha:  6.278e-01  linmin:  1.167e-06  t[s]:  11819.28
ElecMinimize: Converged (|Delta F|<1.000000e-08 for 2 iters).
Setting wave functions to eigenvectors of Hamiltonian

# Ionic positions in lattice coordinates:
ion Zr   0.125000000000000  -0.000000000000000   0.600441096590008 1
ion Zr   0.000000000000000   0.125000000000000   0.399558888743325 1
ion Zr   0.375000000000000   0.000000000000000   0.600441096590008 1
ion Zr   0.250000000000000   0.125000000000000   0.399558888743325 1
ion Zr   0.625000000000000  -0.000000000000000   0.600441096590008 1
ion Zr   0.500000000000000   0.125000000000000   0.399558888743325 1
ion Zr   0.875000000000000   0.000000000000000   0.600441096590008 1
ion Zr   0.750000000000000   0.125000000000000   0.399558888743325 1
ion Zr   0.125000000000000   0.250000000000000   0.600441096590008 1
ion Zr   0.000000000000000   0.375000000000000   0.399558888743325 1
ion Zr   0.375000000000000   0.250000000000000   0.600441096590008 1
ion Zr   0.250000000000000   0.375000000000000   0.399558888743325 1
ion Zr   0.625000000000000   0.250000000000000   0.600441096590008 1
ion Zr   0.500000000000000   0.375000000000000   0.399558888743325 1
ion Zr   0.875000000000000   0.250000000000000   0.600441096590008 1
ion Zr   0.750000000000000   0.375000000000000   0.399558888743325 1
ion Zr   0.125000000000000   0.500000000000000   0.600441096590008 1
ion Zr   0.000000000000000   0.625000000000000   0.399558888743325 1
ion Zr   0.375000000000000   0.500000000000000   0.600441096590008 1
ion Zr   0.250000000000000   0.625000000000000   0.399558888743325 1
ion Zr   0.625000000000000   0.500000000000000   0.600441096590008 1
ion Zr   0.500000000000000   0.625000000000000   0.399558888743325 1
ion Zr   0.875000000000000   0.500000000000000   0.600441096590008 1
ion Zr   0.750000000000000   0.625000000000000   0.399558888743325 1
ion Zr   0.125000000000000   0.750000000000000   0.600441096590008 1
ion Zr   0.000000000000000   0.875000000000000   0.399558888743325 1
ion Zr   0.375000000000000   0.750000000000000   0.600441096590008 1
ion Zr   0.250000000000000   0.875000000000000   0.399558888743325 1
ion Zr   0.625000000000000   0.750000000000000   0.600441096590008 1
ion Zr   0.500000000000000   0.875000000000000   0.399558888743325 1
ion Zr   0.875000000000000   0.750000000000000   0.600441096590008 1
ion Zr   0.750000000000000   0.875000000000000   0.399558888743325 1
ion Si  -0.000000000000000   0.000000000000000   0.499999992666667 1
ion Si   0.125000000000000   0.125000000000000   0.499999992666667 1
ion Si   0.250000000000000   0.000000000000000   0.499999992666667 1
ion Si   0.375000000000000   0.125000000000000   0.499999992666667 1
ion Si   0.500000000000000  -0.000000000000000   0.499999992666667 1
ion Si   0.625000000000000   0.125000000000000   0.499999992666667 1
ion Si   0.750000000000000   0.000000000000000   0.499999992666667 1
ion Si   0.875000000000000   0.125000000000000   0.499999992666667 1
ion Si   0.000000000000000   0.250000000000000   0.499999992666667 1
ion Si   0.125000000000000   0.375000000000000   0.499999992666667 1
ion Si   0.250000000000000   0.250000000000000   0.499999992666667 1
ion Si   0.375000000000000   0.375000000000000   0.499999992666667 1
ion Si   0.500000000000000   0.250000000000000   0.499999992666667 1
ion Si   0.625000000000000   0.375000000000000   0.499999992666667 1
ion Si   0.750000000000000   0.250000000000000   0.499999992666667 1
ion Si   0.875000000000000   0.375000000000000   0.499999992666667 1
ion Si   0.000000000000000   0.500000000000000   0.499999992666667 1
ion Si   0.125000000000000   0.625000000000000   0.499999992666667 1
ion Si   0.250000000000000   0.500000000000000   0.499999992666667 1
ion Si   0.375000000000000   0.625000000000000   0.499999992666667 1
ion Si   0.500000000000000   0.500000000000000   0.499999992666667 1
ion Si   0.625000000000000   0.625000000000000   0.499999992666667 1
ion Si   0.750000000000000   0.500000000000000   0.499999992666667 1
ion Si   0.875000000000000   0.625000000000000   0.499999992666667 1
ion Si  -0.000000000000000   0.750000000000000   0.499999992666667 1
ion Si   0.125000000000000   0.875000000000000   0.499999992666667 1
ion Si   0.250000000000000   0.750000000000000   0.499999992666667 1
ion Si   0.375000000000000   0.875000000000000   0.499999992666667 1
ion Si   0.500000000000000   0.750000000000000   0.499999992666667 1
ion Si   0.625000000000000   0.875000000000000   0.499999992666667 1
ion Si   0.750000000000000   0.750000000000000   0.499999992666667 1
ion Si   0.875000000000000   0.875000000000000   0.499999992666667 1
ion Se  -0.000000000000000   0.125000000000000   0.655088536343336 1
ion Se   0.125000000000000  -0.000000000000000   0.344911448989998 1
ion Se   0.250000000000000   0.125000000000000   0.655088536343336 1
ion Se   0.375000000000000  -0.000000000000000   0.344911448989998 1
ion Se   0.500000000000000   0.125000000000000   0.655088536343336 1
ion Se   0.625000000000000  -0.000000000000000   0.344911448989998 1
ion Se   0.750000000000000   0.125000000000000   0.655088536343336 1
ion Se   0.875000000000000  -0.000000000000000   0.344911448989998 1
ion Se  -0.000000000000000   0.375000000000000   0.655088536343336 1
ion Se   0.125000000000000   0.250000000000000   0.344911448989998 1
ion Se   0.250000000000000   0.375000000000000   0.655088536343336 1
ion Se   0.375000000000000   0.250000000000000   0.344911448989998 1
ion Se   0.500000000000000   0.375000000000000   0.655088536343336 1
ion Se   0.625000000000000   0.250000000000000   0.344911448989998 1
ion Se   0.750000000000000   0.375000000000000   0.655088536343336 1
ion Se   0.875000000000000   0.250000000000000   0.344911448989998 1
ion Se  -0.000000000000000   0.625000000000000   0.655088536343336 1
ion Se   0.125000000000000   0.500000000000000   0.344911448989998 1
ion Se   0.250000000000000   0.625000000000000   0.655088536343336 1
ion Se   0.375000000000000   0.500000000000000   0.344911448989998 1
ion Se   0.500000000000000   0.625000000000000   0.655088536343336 1
ion Se   0.625000000000000   0.500000000000000   0.344911448989998 1
ion Se   0.750000000000000   0.625000000000000   0.655088536343336 1
ion Se   0.875000000000000   0.500000000000000   0.344911448989998 1
ion Se  -0.000000000000000   0.875000000000000   0.655088536343336 1
ion Se   0.125000000000000   0.750000000000000   0.344911448989998 1
ion Se   0.250000000000000   0.875000000000000   0.655088536343336 1
ion Se   0.375000000000000   0.750000000000000   0.344911448989998 1
ion Se   0.500000000000000   0.875000000000000   0.655088536343336 1
ion Se   0.625000000000000   0.750000000000000   0.344911448989998 1
ion Se   0.750000000000000   0.875000000000000   0.655088536343336 1
ion Se   0.875000000000000   0.750000000000000   0.344911448989998 1


# Forces in Lattice coordinates:
force Zr  -0.000000000000000  -0.000000000000000  -0.028900998132685 1
force Zr   0.000000000000000   0.000000000000000   0.028900998133368 1
force Zr   0.000000000000000   0.000000000000000  -0.028900998132685 1
force Zr   0.000000000000000   0.000000000000000   0.028900998133140 1
force Zr  -0.000000000000000  -0.000000000000000  -0.028900998132685 1
force Zr   0.000000000000000   0.000000000000000   0.028900998133368 1
force Zr   0.000000000000000  -0.000000000000000  -0.028900998132685 1
force Zr   0.000000000000000   0.000000000000000   0.028900998133368 1
force Zr  -0.000000000000000  -0.000000000000000  -0.028900998132686 1
force Zr  -0.000000000000000   0.000000000000000   0.028900998133368 1
force Zr  -0.000000000000000   0.000000000000000  -0.028900998132685 1
force Zr   0.000000000000000  -0.000000000000000   0.028900998133141 1
force Zr   0.000000000000000  -0.000000000000000  -0.028900998132685 1
force Zr   0.000000000000000   0.000000000000000   0.028900998133368 1
force Zr  -0.000000000000000  -0.000000000000000  -0.028900998132685 1
force Zr   0.000000000000000   0.000000000000000   0.028900998133368 1
force Zr  -0.000000000000000   0.000000000000000  -0.028900998132686 1
force Zr   0.000000000000000   0.000000000000000   0.028900998133368 1
force Zr  -0.000000000000000   0.000000000000000  -0.028900998132686 1
force Zr   0.000000000000000   0.000000000000000   0.028900998133368 1
force Zr  -0.000000000000000   0.000000000000000  -0.028900998132685 1
force Zr   0.000000000000000   0.000000000000000   0.028900998133368 1
force Zr  -0.000000000000000   0.000000000000000  -0.028900998132685 1
force Zr   0.000000000000000   0.000000000000000   0.028900998133368 1
force Zr  -0.000000000000000   0.000000000000000  -0.028900998132686 1
force Zr  -0.000000000000000   0.000000000000000   0.028900998133368 1
force Zr  -0.000000000000000  -0.000000000000000  -0.028900998132686 1
force Zr   0.000000000000000   0.000000000000000   0.028900998133368 1
force Zr   0.000000000000000  -0.000000000000000  -0.028900998132685 1
force Zr  -0.000000000000000  -0.000000000000000   0.028900998133368 1
force Zr  -0.000000000000000  -0.000000000000000  -0.028900998132685 1
force Zr   0.000000000000000   0.000000000000000   0.028900998133368 1
[...]
	Linear fluid (dielectric constant: 78.4, screening length: 5.74355 Bohr) occupying 0.711034 of unit cell:	Completed after 0 iterations at t[s]:  15482.51
	Linear fluid (dielectric constant: 78.4, screening length: 5.74355 Bohr) occupying 0.711034 of unit cell:	Completed after 0 iterations at t[s]:  15527.50
	FillingsUpdate:  mu: -0.158521643  nElectrons: 704.500000  magneticMoment: [ Abs: 0.00000  Tot: -0.00000 ]
	SubspaceRotationAdjust: set factor to 0.121
ElecMinimize: Iter:  16  F: -1947.948746098147240  |grad|_K:  1.654e-08  alpha:  3.367e-01  linmin: -1.307e-08  t[s]:  15590.19
	Linear fluid (dielectric constant: 78.4, screening length: 5.74355 Bohr) occupying 0.711033 of unit cell:	Completed after 1 iterations at t[s]:  15641.21
	Linear fluid (dielectric constant: 78.4, screening length: 5.74355 Bohr) occupying 0.711034 of unit cell:	Completed after 0 iterations at t[s]:  15687.08
ElecMinimize: 	Step increased F by 1.341170e-07, reducing alpha to 6.379226e-03.
	Linear fluid (dielectric constant: 78.4, screening length: 5.74355 Bohr) occupying 0.711034 of unit cell:	Completed after 0 iterations at t[s]:  15785.00
ElecMinimize: 	Step increased F by 1.328897e-07, reducing alpha to 6.379226e-04.
	Linear fluid (dielectric constant: 78.4, screening length: 5.74355 Bohr) occupying 0.711034 of unit cell:	Completed after 0 iterations at t[s]:  15883.60
ElecMinimize: 	Step increased F by 1.328312e-07, reducing alpha to 6.379226e-05.
ElecMinimize: 	Step failed to reduce F after 3 attempts. Quitting step.
ElecMinimize: 	Undoing step.
	Linear fluid (dielectric constant: 78.4, screening length: 5.74355 Bohr) occupying 0.711034 of unit cell:	Completed after 0 iterations at t[s]:  15981.41
ElecMinimize: 	Step failed: resetting search direction.
	FillingsUpdate:  mu: -0.158497666  nElectrons: 704.500000  magneticMoment: [ Abs: 0.00000  Tot: -0.00000 ]
	SubspaceRotationAdjust: set factor to 0.15
ElecMinimize: Iter:  17  F: -1947.948745965272792  |grad|_K:  5.314e-09  alpha:  6.379e-05
	Linear fluid (dielectric constant: 78.4, screening length: 5.74355 Bohr) occupying 0.711034 of unit cell:	Completed after 0 iterations at t[s]:  16092.63
	Linear fluid (dielectric constant: 78.4, screening length: 5.74355 Bohr) occupying 0.711034 of unit cell:	Completed after 0 iterations at t[s]:  16137.44
	FillingsUpdate:  mu: -0.158497495  nElectrons: 704.500000  magneticMoment: [ Abs: 0.00000  Tot: -0.00000 ]
	SubspaceRotationAdjust: set factor to 0.178
ElecMinimize: Iter:  18  F: -1947.948745977272665  |grad|_K:  4.338e-09  alpha:  8.936e-01  linmin:  9.202e-06  t[s]:  16199.57
	Linear fluid (dielectric constant: 78.4, screening length: 5.74355 Bohr) occupying 0.711034 of unit cell:	Completed after 0 iterations at t[s]:  16249.91
	Linear fluid (dielectric constant: 78.4, screening length: 5.74355 Bohr) occupying 0.711034 of unit cell:	Completed after 0 iterations at t[s]:  16294.79
	FillingsUpdate:  mu: -0.158497412  nElectrons: 704.500000  magneticMoment: [ Abs: 0.00000  Tot: -0.00000 ]
	SubspaceRotationAdjust: set factor to 0.231
ElecMinimize: Iter:  19  F: -1947.948745984540892  |grad|_K:  3.559e-09  alpha:  8.171e-01  linmin:  4.526e-07  t[s]:  16357.88
	Linear fluid (dielectric constant: 78.4, screening length: 5.74355 Bohr) occupying 0.711035 of unit cell:	Completed after 0 iterations at t[s]:  16408.37
	Linear fluid (dielectric constant: 78.4, screening length: 5.74355 Bohr) occupying 0.711035 of unit cell:	Completed after 0 iterations at t[s]:  16453.46
	FillingsUpdate:  mu: -0.158497460  nElectrons: 704.500000  magneticMoment: [ Abs: 0.00000  Tot: -0.00000 ]
	SubspaceRotationAdjust: set factor to 0.292
ElecMinimize: Iter:  20  F: -1947.948745992238173  |grad|_K:  3.278e-09  alpha:  1.221e+00  linmin:  5.273e-08  t[s]:  16515.44
ElecMinimize: Converged (|Delta F|<1.000000e-08 for 2 iters).
Setting wave functions to eigenvectors of Hamiltonian

# Ionic positions in lattice coordinates:
ion Zr   0.125000000000000  -0.000000000000000   0.600364268459642 1
ion Zr   0.000000000000000   0.125000000000000   0.399635716873692 1
ion Zr   0.375000000000000  -0.000000000000000   0.600364268459642 1
ion Zr   0.250000000000000   0.125000000000000   0.399635716873692 1
ion Zr   0.625000000000000  -0.000000000000000   0.600364268459642 1
ion Zr   0.500000000000000   0.125000000000000   0.399635716873692 1
ion Zr   0.875000000000000  -0.000000000000000   0.600364268459642 1
ion Zr   0.750000000000000   0.125000000000000   0.399635716873692 1
ion Zr   0.125000000000000   0.250000000000000   0.600364268459642 1
ion Zr  -0.000000000000000   0.375000000000000   0.399635716873692 1
ion Zr   0.375000000000000   0.250000000000000   0.600364268459642 1
ion Zr   0.250000000000000   0.375000000000000   0.399635716873692 1
ion Zr   0.625000000000000   0.250000000000000   0.600364268459642 1
ion Zr   0.500000000000000   0.375000000000000   0.399635716873692 1
ion Zr   0.875000000000000   0.250000000000000   0.600364268459642 1
ion Zr   0.750000000000000   0.375000000000000   0.399635716873692 1
ion Zr   0.125000000000000   0.500000000000000   0.600364268459642 1
ion Zr   0.000000000000000   0.625000000000000   0.399635716873692 1
ion Zr   0.375000000000000   0.500000000000000   0.600364268459642 1
ion Zr   0.250000000000000   0.625000000000000   0.399635716873692 1
ion Zr   0.625000000000000   0.500000000000000   0.600364268459642 1
ion Zr   0.500000000000000   0.625000000000000   0.399635716873692 1
ion Zr   0.875000000000000   0.500000000000000   0.600364268459642 1
ion Zr   0.750000000000000   0.625000000000000   0.399635716873692 1
ion Zr   0.125000000000000   0.750000000000000   0.600364268459642 1
ion Zr  -0.000000000000000   0.875000000000000   0.399635716873692 1
ion Zr   0.375000000000000   0.750000000000000   0.600364268459642 1
ion Zr   0.250000000000000   0.875000000000000   0.399635716873692 1
ion Zr   0.625000000000000   0.750000000000000   0.600364268459642 1
ion Zr   0.500000000000000   0.875000000000000   0.399635716873692 1
ion Zr   0.875000000000000   0.750000000000000   0.600364268459642 1
ion Zr   0.750000000000000   0.875000000000000   0.399635716873692 1
ion Si   0.000000000000000  -0.000000000000000   0.499999992666667 1
ion Si   0.125000000000000   0.125000000000000   0.499999992666667 1
ion Si   0.250000000000000  -0.000000000000000   0.499999992666667 1
ion Si   0.375000000000000   0.125000000000000   0.499999992666667 1
ion Si   0.500000000000000  -0.000000000000000   0.499999992666667 1
ion Si   0.625000000000000   0.125000000000000   0.499999992666667 1
ion Si   0.750000000000000  -0.000000000000000   0.499999992666667 1
ion Si   0.875000000000000   0.125000000000000   0.499999992666667 1
ion Si   0.000000000000000   0.250000000000000   0.499999992666667 1
ion Si   0.125000000000000   0.375000000000000   0.499999992666667 1
ion Si   0.250000000000000   0.250000000000000   0.499999992666667 1
ion Si   0.375000000000000   0.375000000000000   0.499999992666667 1
ion Si   0.500000000000000   0.250000000000000   0.499999992666667 1
ion Si   0.625000000000000   0.375000000000000   0.499999992666667 1
ion Si   0.750000000000000   0.250000000000000   0.499999992666667 1
ion Si   0.875000000000000   0.375000000000000   0.499999992666667 1
ion Si   0.000000000000000   0.500000000000000   0.499999992666667 1
ion Si   0.125000000000000   0.625000000000000   0.499999992666667 1
ion Si   0.250000000000000   0.500000000000000   0.499999992666667 1
ion Si   0.375000000000000   0.625000000000000   0.499999992666667 1
ion Si   0.500000000000000   0.500000000000000   0.499999992666667 1
ion Si   0.625000000000000   0.625000000000000   0.499999992666667 1
ion Si   0.750000000000000   0.500000000000000   0.499999992666667 1
ion Si   0.875000000000000   0.625000000000000   0.499999992666667 1
ion Si   0.000000000000000   0.750000000000000   0.499999992666667 1
ion Si   0.125000000000000   0.875000000000000   0.499999992666667 1
ion Si   0.250000000000000   0.750000000000000   0.499999992666667 1
ion Si   0.375000000000000   0.875000000000000   0.499999992666667 1
ion Si   0.500000000000000   0.750000000000000   0.499999992666667 1
ion Si   0.625000000000000   0.875000000000000   0.499999992666667 1
ion Si   0.750000000000000   0.750000000000000   0.499999992666667 1
ion Si   0.875000000000000   0.875000000000000   0.499999992666667 1
ion Se   0.000000000000000   0.125000000000000   0.655190386350598 1
ion Se   0.125000000000000  -0.000000000000000   0.344809598982735 1
ion Se   0.250000000000000   0.125000000000000   0.655190386350598 1
ion Se   0.375000000000000   0.000000000000000   0.344809598982735 1
ion Se   0.500000000000000   0.125000000000000   0.655190386350598 1
ion Se   0.625000000000000  -0.000000000000000   0.344809598982735 1
ion Se   0.750000000000000   0.125000000000000   0.655190386350598 1
ion Se   0.875000000000000   0.000000000000000   0.344809598982735 1
ion Se   0.000000000000000   0.375000000000000   0.655190386350598 1
ion Se   0.125000000000000   0.250000000000000   0.344809598982735 1
ion Se   0.250000000000000   0.375000000000000   0.655190386350598 1
ion Se   0.375000000000000   0.250000000000000   0.344809598982735 1
ion Se   0.500000000000000   0.375000000000000   0.655190386350598 1
ion Se   0.625000000000000   0.250000000000000   0.344809598982735 1
ion Se   0.750000000000000   0.375000000000000   0.655190386350598 1
ion Se   0.875000000000000   0.250000000000000   0.344809598982735 1
ion Se   0.000000000000000   0.625000000000000   0.655190386350598 1
ion Se   0.125000000000000   0.500000000000000   0.344809598982735 1
ion Se   0.250000000000000   0.625000000000000   0.655190386350598 1
ion Se   0.375000000000000   0.500000000000000   0.344809598982735 1
ion Se   0.500000000000000   0.625000000000000   0.655190386350598 1
ion Se   0.625000000000000   0.500000000000000   0.344809598982735 1
ion Se   0.750000000000000   0.625000000000000   0.655190386350598 1
ion Se   0.875000000000000   0.500000000000000   0.344809598982735 1
ion Se   0.000000000000000   0.875000000000000   0.655190386350598 1
ion Se   0.125000000000000   0.750000000000000   0.344809598982735 1
ion Se   0.250000000000000   0.875000000000000   0.655190386350598 1
ion Se   0.375000000000000   0.750000000000000   0.344809598982735 1
ion Se   0.500000000000000   0.875000000000000   0.655190386350598 1
ion Se   0.625000000000000   0.750000000000000   0.344809598982735 1
ion Se   0.750000000000000   0.875000000000000   0.655190386350598 1
ion Se   0.875000000000000   0.750000000000000   0.344809598982735 1


# Forces in Lattice coordinates:
force Zr   0.000000000000000   0.000000000000000  -0.002975171118194 1
force Zr  -0.000000000000000  -0.000000000000000   0.002975171118649 1
force Zr   0.000000000000000   0.000000000000000  -0.002975171118194 1
force Zr   0.000000000000000   0.000000000000000   0.002975171118649 1
force Zr   0.000000000000000  -0.000000000000000  -0.002975171118194 1
force Zr  -0.000000000000000  -0.000000000000000   0.002975171118649 1
force Zr  -0.000000000000000   0.000000000000000  -0.002975171118194 1
force Zr  -0.000000000000000   0.000000000000000   0.002975171118649 1
force Zr  -0.000000000000000  -0.000000000000000  -0.002975171118194 1
force Zr   0.000000000000000  -0.000000000000000   0.002975171118649 1
force Zr  -0.000000000000000  -0.000000000000000  -0.002975171118194 1
force Zr  -0.000000000000000  -0.000000000000000   0.002975171118649 1
force Zr   0.000000000000000  -0.000000000000000  -0.002975171118194 1
force Zr  -0.000000000000000  -0.000000000000000   0.002975171118649 1
force Zr  -0.000000000000000   0.000000000000000  -0.002975171118194 1
force Zr  -0.000000000000000  -0.000000000000000   0.002975171118649 1
force Zr  -0.000000000000000  -0.000000000000000  -0.002975171118194 1
force Zr   0.000000000000000  -0.000000000000000   0.002975171118648 1
force Zr  -0.000000000000000  -0.000000000000000  -0.002975171118194 1
force Zr  -0.000000000000000  -0.000000000000000   0.002975171118648 1
force Zr   0.000000000000000  -0.000000000000000  -0.002975171118194 1
force Zr  -0.000000000000000  -0.000000000000000   0.002975171118649 1
force Zr  -0.000000000000000   0.000000000000000  -0.002975171118194 1
force Zr   0.000000000000000   0.000000000000000   0.002975171118648 1
force Zr   0.000000000000000  -0.000000000000000  -0.002975171118194 1
force Zr  -0.000000000000000  -0.000000000000000   0.002975171118649 1
force Zr   0.000000000000000  -0.000000000000000  -0.002975171118194 1
force Zr   0.000000000000000   0.000000000000000   0.002975171118422 1
force Zr   0.000000000000000  -0.000000000000000  -0.002975171118194 1
force Zr  -0.000000000000000   0.000000000000000   0.002975171118649 1
force Zr   0.000000000000000   0.000000000000000  -0.002975171118194 1
force Zr  -0.000000000000000   0.000000000000000   0.002975171118876 1
force Si  -0.000000000000000  -0.000000000000000   0.000000000000000 1
force Si   0.000000000000000   0.000000000000000   0.000000000000000 1
force Si  -0.000000000000000   0.000000000000000   0.000000000000000 1
force Si   0.000000000000000  -0.000000000000000   0.000000000000000 1
force Si  -0.000000000000000  -0.000000000000000  -0.000000000000000 1
force Si  -0.000000000000000   0.000000000000000   0.000000000000000 1
force Si  -0.000000000000000  -0.000000000000000   0.000000000000000 1
force Si   0.000000000000000   0.000000000000000   0.000000000000000 1
force Si  -0.000000000000000  -0.000000000000000  -0.000000000000000 1
force Si   0.000000000000000  -0.000000000000000  -0.000000000000000 1
force Si  -0.000000000000000   0.000000000000000   0.000000000000000 1
force Si  -0.000000000000000  -0.000000000000000  -0.000000000000000 1
force Si  -0.000000000000000  -0.000000000000000  -0.000000000000000 1
force Si  -0.000000000000000  -0.000000000000000  -0.000000000000000 1
force Si   0.000000000000000  -0.000000000000000   0.000000000000000 1
force Si  -0.000000000000000  -0.000000000000000  -0.000000000000000 1
force Si  -0.000000000000000   0.000000000000000   0.000000000000000 1
force Si   0.000000000000000  -0.000000000000000   0.000000000000000 1
force Si  -0.000000000000000   0.000000000000000  -0.000000000000000 1
force Si   0.000000000000000   0.000000000000000  -0.000000000000000 1
force Si   0.000000000000000  -0.000000000000000  -0.000000000000000 1
force Si  -0.000000000000000  -0.000000000000000  -0.000000000000000 1
force Si  -0.000000000000000  -0.000000000000000  -0.000000000000000 1
force Si   0.000000000000000  -0.000000000000000  -0.000000000000000 1
force Si   0.000000000000000   0.000000000000000   0.000000000000000 1
force Si   0.000000000000000   0.000000000000000   0.000000000000000 1
force Si   0.000000000000000   0.000000000000000   0.000000000000000 1
force Si  -0.000000000000000  -0.000000000000000   0.000000000000000 1
force Si  -0.000000000000000  -0.000000000000000  -0.000000000000000 1
force Si   0.000000000000000   0.000000000000000   0.000000000000000 1
force Si  -0.000000000000000  -0.000000000000000   0.000000000000000 1
force Si   0.000000000000000   0.000000000000000   0.000000000000000 1
force Se   0.000000000000000   0.000000000000000   0.004515503826631 1
force Se   0.000000000000000   0.000000000000000  -0.004515503826518 1
force Se  -0.000000000000000   0.000000000000000   0.004515503826518 1
force Se   0.000000000000000   0.000000000000000  -0.004515503826518 1
force Se  -0.000000000000000   0.000000000000000   0.004515503826632 1
force Se  -0.000000000000000   0.000000000000000  -0.004515503826519 1
force Se   0.000000000000000   0.000000000000000   0.004515503826632 1
force Se  -0.000000000000000   0.000000000000000  -0.004515503826517 1
force Se   0.000000000000000  -0.000000000000000   0.004515503826631 1
force Se   0.000000000000000   0.000000000000000  -0.004515503826517 1
force Se  -0.000000000000000  -0.000000000000000   0.004515503826632 1
force Se  -0.000000000000000  -0.000000000000000  -0.004515503826516 1
force Se   0.000000000000000   0.000000000000000   0.004515503826632 1
force Se   0.000000000000000  -0.000000000000000  -0.004515503826516 1
force Se   0.000000000000000  -0.000000000000000   0.004515503826632 1
force Se   0.000000000000000  -0.000000000000000  -0.004515503826518 1
force Se  -0.000000000000000   0.000000000000000   0.004515503826745 1
force Se  -0.000000000000000   0.000000000000000  -0.004515503826517 1
force Se   0.000000000000000  -0.000000000000000   0.004515503826631 1
force Se   0.000000000000000   0.000000000000000  -0.004515503826518 1
force Se   0.000000000000000  -0.000000000000000   0.004515503826631 1
force Se   0.000000000000000   0.000000000000000  -0.004515503826517 1
force Se   0.000000000000000   0.000000000000000   0.004515503826630 1
force Se  -0.000000000000000   0.000000000000000  -0.004515503826518 1
force Se   0.000000000000000  -0.000000000000000   0.004515503826744 1
force Se   0.000000000000000  -0.000000000000000  -0.004515503826518 1
force Se  -0.000000000000000  -0.000000000000000   0.004515503826632 1
force Se   0.000000000000000   0.000000000000000  -0.004515503826517 1
force Se   0.000000000000000  -0.000000000000000   0.004515503826632 1
force Se  -0.000000000000000  -0.000000000000000  -0.004515503826519 1
force Se   0.000000000000000  -0.000000000000000   0.004515503826630 1
force Se   0.000000000000000  -0.000000000000000  -0.004515503826405 1

# Energy components:
   A_diel =       -0.0483138374024537
   Eewald =    18049.7420746790739940
       EH =    19672.3761044837992813
     Eloc =   -40215.2232534237191430
      Enl =      286.6543389369117563
      Exc =     -831.5051222819902250
 Exc_core =      493.5807964753496435
       KE =      596.5495471928076086
  MuShift =       -0.0060128373477427
-------------------------------------
     Etot =    -1947.8798406125226848
       TS =        0.0689053797155084
-------------------------------------
        F =    -1947.9487459922381731

IonicMinimize: Iter:   2  F: -1947.948745992238173  |grad|_K:  4.394e-05  alpha:  1.000e+00  linmin: -9.980e-01  t[s]:  16556.98
IonicMinimize: Converged (|grad|_K<1.000000e-04).

#--- Lowdin population analysis ---
# oxidation-state Zr -0.451 -0.451 -0.451 -0.451 -0.451 -0.451 -0.451 -0.451 -0.451 -0.451 -0.451 -0.451 -0.451 -0.451 -0.451 -0.451 -0.451 -0.451 -0.451 -0.451 -0.451 -0.451 -0.451 -0.451 -0.451 -0.451 -0.451 -0.451 -0.451 -0.451 -0.451 -0.451
# magnetic-moments Zr +0.000 +0.000 +0.000 +0.000 +0.000 +0.000 +0.000 +0.000 +0.000 +0.000 +0.000 +0.000 +0.000 +0.000 +0.000 +0.000 +0.000 +0.000 +0.000 +0.000 +0.000 +0.000 +0.000 +0.000 +0.000 +0.000 +0.000 +0.000 +0.000 +0.000 +0.000 +0.000
# oxidation-state Si +0.315 +0.315 +0.315 +0.315 +0.315 +0.315 +0.315 +0.315 +0.315 +0.315 +0.315 +0.315 +0.315 +0.315 +0.315 +0.315 +0.315 +0.315 +0.315 +0.315 +0.315 +0.315 +0.315 +0.315 +0.315 +0.315 +0.315 +0.315 +0.315 +0.315 +0.315 +0.315
# magnetic-moments Si +0.000 +0.000 +0.000 +0.000 +0.000 +0.000 +0.000 +0.000 +0.000 +0.000 +0.000 +0.000 +0.000 +0.000 +0.000 +0.000 +0.000 +0.000 +0.000 +0.000 +0.000 +0.000 +0.000 +0.000 +0.000 +0.000 +0.000 +0.000 +0.000 +0.000 +0.000 +0.000
# oxidation-state Se +0.200 +0.200 +0.200 +0.200 +0.200 +0.200 +0.200 +0.200 +0.200 +0.200 +0.200 +0.200 +0.200 +0.200 +0.200 +0.200 +0.200 +0.200 +0.200 +0.200 +0.200 +0.200 +0.200 +0.200 +0.200 +0.200 +0.200 +0.200 +0.200 +0.200 +0.200 +0.200
# magnetic-moments Se -0.000 -0.000 -0.000 -0.000 -0.000 -0.000 -0.000 -0.000 -0.000 -0.000 -0.000 -0.000 -0.000 -0.000 -0.000 -0.000 -0.000 -0.000 -0.000 -0.000 -0.000 -0.000 -0.000 -0.000 -0.000 -0.000 -0.000 -0.000 -0.000 -0.000 -0.000 -0.000


Dumping 'NbTe2.fillings' ... done
Dumping 'NbTe2.wfns' ... done
Dumping 'NbTe2.fluidState' ... done
Dumping 'NbTe2.ionpos' ... done
Dumping 'NbTe2.eigenvals' ... done
End date and time: Sat Feb  6 16:32:17 2021  (Duration: 0-4:36:24.28)
Done!
