
*************** JDFTx 1.5.0  ***************

Start date and time: Thu Apr 15 19:58:10 2021
Executable jdftx_gpu with command-line: -i Charged.in -o Charged.out
Running on hosts (process indices):  amax (0-6)
Divided in process groups (process indices):  0 (0)  1 (1)  2 (2)  3 (3)  4 (4)  5 (5)  6 (6)
gpuInit: Found compatible cuda device 0 'Tesla K80'
gpuInit: Found compatible cuda device 1 'Tesla K80'
gpuInit: Found compatible cuda device 2 'Tesla K80'
gpuInit: Found compatible cuda device 3 'Tesla K80'
gpuInit: Found compatible cuda device 4 'Tesla K80'
gpuInit: Found compatible cuda device 5 'Tesla K80'
gpuInit: Found compatible cuda device 6 'Tesla K80'
gpuInit: Selected device 0
Resource initialization completed at t[s]:      3.62
Run totals: 7 processes, 24 threads, 7 GPUs


Input parsed successfully to the following command list (including defaults):

basis kpoint-dependent
cache-projectors no
coords-type Lattice
core-overlap-check none
coulomb-interaction Slab 001
coulomb-truncation-embed 0.5 0.5 0.5
davidson-band-ratio 1.1
dump End State
dump-name NbTe2.$VAR
elec-cutoff 20
elec-eigen-algo Davidson
elec-ex-corr gga-PBE
elec-smearing Gauss 0.0073499
electronic-minimize  \
	dirUpdateScheme      FletcherReeves \
	linminMethod         DirUpdateRecommended \
	nIterations          200 \
	history              15 \
	knormThreshold       0 \
	energyDiffThreshold  1e-08 \
	nEnergyDiff          2 \
	alphaTstart          1 \
	alphaTmin            1e-10 \
	updateTestStepSize   yes \
	alphaTreduceFactor   0.1 \
	alphaTincreaseFactor 3 \
	nAlphaAdjustMax      3 \
	wolfeEnergy          0.0001 \
	wolfeGradient        0.9 \
	fdTest               no
exchange-regularization WignerSeitzTruncated
fluid LinearPCM 298.000000 1.013250
fluid-anion F- 1 MeanFieldLJ \
	epsBulk 1 \
	pMol 0 \
	epsInf 1 \
	Pvap 0 \
	sigmaBulk 0 \
	Rvdw 2.24877 \
	Res 0 \
	tauNuc 343133
fluid-cation Na+ 1 MeanFieldLJ \
	epsBulk 1 \
	pMol 0 \
	epsInf 1 \
	Pvap 0 \
	sigmaBulk 0 \
	Rvdw 2.19208 \
	Res 0 \
	tauNuc 343133
fluid-ex-corr lda-TF lda-PZ
fluid-gummel-loop 10 1.000000e-05
fluid-minimize  \
	dirUpdateScheme      PolakRibiere \
	linminMethod         DirUpdateRecommended \
	nIterations          400 \
	history              15 \
	knormThreshold       1e-11 \
	energyDiffThreshold  0 \
	nEnergyDiff          2 \
	alphaTstart          1 \
	alphaTmin            1e-10 \
	updateTestStepSize   yes \
	alphaTreduceFactor   0.1 \
	alphaTincreaseFactor 3 \
	nAlphaAdjustMax      6 \
	wolfeEnergy          0.0001 \
	wolfeGradient        0.9 \
	fdTest               no
fluid-solvent H2O 55.338 ScalarEOS \
	epsBulk 78.4 \
	pMol 0.92466 \
	epsInf 1.77 \
	Pvap 1.06736e-10 \
	sigmaBulk 4.62e-05 \
	Rvdw 2.61727 \
	Res 1.42 \
	tauNuc 343133 \
	poleEl 15 7 1
forces-output-coords Positions
initial-state NbTe2.$VAR
ion V   0.166666658916667   0.083333325633333   0.561660652738666 1
ion V   0.083333325583333   0.166666658966667   0.438323318461334 1
ion V   0.416666658916667   0.083333325633333   0.561660652738666 1
ion V   0.333333325583333   0.166666658966667   0.438323318461334 1
ion V   0.666666658916667   0.083333325633333   0.561660652738666 1
ion V   0.583333325583333   0.166666658966667   0.438323318461334 1
ion V   0.916666658916667   0.083333325633333   0.561660652738666 1
ion V   0.833333325583333   0.166666658966667   0.438323318461334 1
ion V   0.166666658916667   0.333333325633333   0.561660652738666 1
ion V   0.083333325583333   0.416666658966667   0.438323318461334 1
ion V   0.416666658916667   0.333333325633333   0.561660652738666 1
ion V   0.333333325583333   0.416666658966667   0.438323318461334 1
ion V   0.666666658916667   0.333333325633333   0.561660652738666 1
ion V   0.583333325583333   0.416666658966667   0.438323318461334 1
ion V   0.916666658916667   0.333333325633333   0.561660652738666 1
ion V   0.833333325583333   0.416666658966667   0.438323318461334 1
ion V   0.166666658916667   0.583333325633333   0.561660652738666 1
ion V   0.083333325583333   0.666666658966667   0.438323318461334 1
ion V   0.416666658916667   0.583333325633333   0.561660652738666 1
ion V   0.333333325583333   0.666666658966667   0.438323318461334 1
ion V   0.666666658916667   0.583333325633333   0.561660652738666 1
ion V   0.583333325583333   0.666666658966667   0.438323318461334 1
ion V   0.916666658916667   0.583333325633333   0.561660652738666 1
ion V   0.833333325583333   0.666666658966667   0.438323318461334 1
ion V   0.166666658916667   0.833333325633333   0.561660652738666 1
ion V   0.083333325583333   0.916666658966667   0.438323318461334 1
ion V   0.416666658916667   0.833333325633333   0.561660652738666 1
ion V   0.333333325583333   0.916666658966667   0.438323318461334 1
ion V   0.666666658916667   0.833333325633333   0.561660652738666 1
ion V   0.583333325583333   0.916666658966667   0.438323318461334 1
ion V   0.916666658916667   0.833333325633333   0.561660652738666 1
ion V   0.833333325583333   0.916666658966667   0.438323318461334 1
ion C  -0.000000007750000  -0.000000007700000   0.499991985600000 1
ion C   0.249999992250000  -0.000000007700000   0.499991985600000 1
ion C   0.499999992250000  -0.000000007700000   0.499991985600000 1
ion C   0.749999992250000  -0.000000007700000   0.499991985600000 1
ion C  -0.000000007750000   0.249999992300000   0.499991985600000 1
ion C   0.249999992250000   0.249999992300000   0.499991985600000 1
ion C   0.499999992250000   0.249999992300000   0.499991985600000 1
ion C   0.749999992250000   0.249999992300000   0.499991985600000 1
ion C  -0.000000007750000   0.499999992300000   0.499991985600000 1
ion C   0.249999992250000   0.499999992300000   0.499991985600000 1
ion C   0.499999992250000   0.499999992300000   0.499991985600000 1
ion C   0.749999992250000   0.499999992300000   0.499991985600000 1
ion C  -0.000000007750000   0.749999992300000   0.499991985600000 1
ion C   0.249999992250000   0.749999992300000   0.499991985600000 1
ion C   0.499999992250000   0.749999992300000   0.499991985600000 1
ion C   0.749999992250000   0.749999992300000   0.499991985600000 1
ion O   0.083333325583333   0.166666658966667   0.614324423076145 1
ion O   0.166666658916667   0.083333325633333   0.385659548123855 1
ion O   0.333333325583333   0.166666658966667   0.614324423076145 1
ion O   0.416666658916667   0.083333325633333   0.385659548123855 1
ion O   0.583333325583333   0.166666658966667   0.614324423076145 1
ion O   0.666666658916667   0.083333325633333   0.385659548123855 1
ion O   0.833333325583333   0.166666658966667   0.614324423076145 1
ion O   0.916666658916667   0.083333325633333   0.385659548123855 1
ion O   0.083333325583333   0.416666658966667   0.614324423076145 1
ion O   0.166666658916667   0.333333325633333   0.385659548123855 1
ion O   0.333333325583333   0.416666658966667   0.614324423076145 1
ion O   0.416666658916667   0.333333325633333   0.385659548123855 1
ion O   0.583333325583333   0.416666658966667   0.614324423076145 1
ion O   0.666666658916667   0.333333325633333   0.385659548123855 1
ion O   0.833333325583333   0.416666658966667   0.614324423076145 1
ion O   0.916666658916667   0.333333325633333   0.385659548123855 1
ion O   0.083333325583333   0.666666658966667   0.614324423076145 1
ion O   0.166666658916667   0.583333325633333   0.385659548123855 1
ion O   0.333333325583333   0.666666658966667   0.614324423076145 1
ion O   0.416666658916667   0.583333325633333   0.385659548123855 1
ion O   0.583333325583333   0.666666658966667   0.614324423076145 1
ion O   0.666666658916667   0.583333325633333   0.385659548123855 1
ion O   0.833333325583333   0.666666658966667   0.614324423076145 1
ion O   0.916666658916667   0.583333325633333   0.385659548123855 1
ion O   0.083333325583333   0.916666658966667   0.614324423076145 1
ion O   0.166666658916667   0.833333325633333   0.385659548123855 1
ion O   0.333333325583333   0.916666658966667   0.614324423076145 1
ion O   0.416666658916667   0.833333325633333   0.385659548123855 1
ion O   0.583333325583333   0.916666658966667   0.614324423076145 1
ion O   0.666666658916667   0.833333325633333   0.385659548123855 1
ion O   0.833333325583333   0.916666658966667   0.614324423076145 1
ion O   0.916666658916667   0.833333325633333   0.385659548123855 1
ion-species GBRV/$ID_pbe.uspp
ion-width Ecut
ionic-minimize  \
	dirUpdateScheme      L-BFGS \
	linminMethod         DirUpdateRecommended \
	nIterations          500 \
	history              15 \
	knormThreshold       0.0001 \
	energyDiffThreshold  1e-06 \
	nEnergyDiff          2 \
	alphaTstart          1 \
	alphaTmin            1e-10 \
	updateTestStepSize   yes \
	alphaTreduceFactor   0.1 \
	alphaTincreaseFactor 3 \
	nAlphaAdjustMax      3 \
	wolfeEnergy          0.0001 \
	wolfeGradient        0.9 \
	fdTest               no
kpoint   0.000000000000   0.000000000000   0.000000000000  1.00000000000000
kpoint-folding 3 3 1 
latt-move-scale 1 1 1
latt-scale 1.88973 1.88973 1.88973 
lattice Triclinic 11.4836 11.4836 19.4677 90 90 120
lattice-minimize  \
	dirUpdateScheme      L-BFGS \
	linminMethod         DirUpdateRecommended \
	nIterations          0 \
	history              15 \
	knormThreshold       0 \
	energyDiffThreshold  1e-06 \
	nEnergyDiff          2 \
	alphaTstart          1 \
	alphaTmin            1e-10 \
	updateTestStepSize   yes \
	alphaTreduceFactor   0.1 \
	alphaTincreaseFactor 3 \
	nAlphaAdjustMax      3 \
	wolfeEnergy          0.0001 \
	wolfeGradient        0.9 \
	fdTest               no
lcao-params -1 1e-06 0.0073499
pcm-variant CANDLE
spintype no-spin
subspace-rotation-factor 1 yes
symmetries automatic
symmetry-threshold 0.0005
target-mu -0.171252 no




---------- Setting up symmetries ----------

Found 24 point-group symmetries of the bravais lattice
Found 192 space-group symmetries with basis
Applied RMS atom displacement 1.11271e-14 bohrs to make symmetries exact.

---------- Initializing the Grid ----------
R = 
[    21.7009   -10.8504          0  ]
[          0    18.7935          0  ]
[          0          0    36.7886  ]
unit cell volume = 15003.7
G =
[   0.289536   0.167163         -0  ]
[          0   0.334327          0  ]
[          0         -0   0.170792  ]
Minimum fftbox size, Smin = [  88  88  152  ]
Chosen fftbox size, S = [  90  90  160  ]

---------- Exchange Correlation functional ----------
Initalized PBE GGA exchange.
Initalized PBE GGA correlation.

---------- Setting up pseudopotentials ----------
Width of ionic core gaussian charges (only for fluid interactions / plotting) set to 0.397384

Reading pseudopotential file '/home/guoxy/vasp/jdftx-1.5.0/build/pseudopotentials/GBRV/v_pbe.uspp':
  Title: V.  Created by USPP 7.3.6 on 31-3-15
  Reference state energy: -72.228583.  13 valence electrons in orbitals:
    |300>  occupation: 2  eigenvalue: -2.581040
    |310>  occupation: 6  eigenvalue: -1.618497
    |400>  occupation: 2  eigenvalue: -0.172800
    |320>  occupation: 3  eigenvalue: -0.189802
  lMax: 2  lLocal: 3  QijEcut: 6
  6 projectors sampled on a log grid with 593 points:
    l: 0  eig: -2.581041  rCut: 1.5
    l: 0  eig: -0.172801  rCut: 1.5
    l: 1  eig: -1.618497  rCut: 1.6
    l: 1  eig: 0.150000  rCut: 1.6
    l: 2  eig: -0.189802  rCut: 1.7
    l: 2  eig: 0.150000  rCut: 1.7
  Partial core density with radius 0.8
  Transforming core density to a uniform radial grid of dG=0.02 with 1477 points.
  Transforming local potential to a uniform radial grid of dG=0.02 with 1477 points.
  Transforming nonlocal projectors to a uniform radial grid of dG=0.02 with 432 points.
  Transforming density augmentations to a uniform radial grid of dG=0.02 with 1477 points.
  Transforming atomic orbitals to a uniform radial grid of dG=0.02 with 432 points.
  Core radius for overlap checks: 1.80 bohrs.

Reading pseudopotential file '/home/guoxy/vasp/jdftx-1.5.0/build/pseudopotentials/GBRV/c_pbe.uspp':
  Title: C.  Created by USPP 7.3.6 on 3-2-2014
  Reference state energy: -5.406344.  4 valence electrons in orbitals:
    |200>  occupation: 2  eigenvalue: -0.504890
    |210>  occupation: 2  eigenvalue: -0.194356
  lMax: 1  lLocal: 2  QijEcut: 5
  4 projectors sampled on a log grid with 503 points:
    l: 0  eig: -0.504890  rCut: 1.3
    l: 0  eig: 0.000000  rCut: 1.3
    l: 1  eig: -0.194357  rCut: 1.3
    l: 1  eig: 0.000000  rCut: 1.3
  Partial core density with radius 1.1
  Transforming core density to a uniform radial grid of dG=0.02 with 1477 points.
  Transforming local potential to a uniform radial grid of dG=0.02 with 1477 points.
  Transforming nonlocal projectors to a uniform radial grid of dG=0.02 with 432 points.
  Transforming density augmentations to a uniform radial grid of dG=0.02 with 1477 points.
  Transforming atomic orbitals to a uniform radial grid of dG=0.02 with 432 points.
  Core radius for overlap checks: 1.30 bohrs.

Reading pseudopotential file '/home/guoxy/vasp/jdftx-1.5.0/build/pseudopotentials/GBRV/o_pbe.uspp':
  Title: O.  Created by USPP 7.3.6 on 3-2-2014
  Reference state energy: -15.894388.  6 valence electrons in orbitals:
    |200>  occupation: 2  eigenvalue: -0.878823
    |210>  occupation: 4  eigenvalue: -0.332131
  lMax: 2  lLocal: 2  QijEcut: 6
  5 projectors sampled on a log grid with 511 points:
    l: 0  eig: -0.878823  rCut: 1.25
    l: 0  eig: 0.000000  rCut: 1.25
    l: 1  eig: -0.332132  rCut: 1.25
    l: 1  eig: 0.000000  rCut: 1.25
    l: 2  eig: 1.000000  rCut: 1.25
  Partial core density with radius 0.7
  Transforming core density to a uniform radial grid of dG=0.02 with 1477 points.
  Transforming local potential to a uniform radial grid of dG=0.02 with 1477 points.
  Transforming nonlocal projectors to a uniform radial grid of dG=0.02 with 432 points.
  Transforming density augmentations to a uniform radial grid of dG=0.02 with 1477 points.
  Transforming atomic orbitals to a uniform radial grid of dG=0.02 with 432 points.
  Core radius for overlap checks: 1.25 bohrs.

Initialized 3 species with 80 total atoms.

Folded 1 k-points by 3x3x1 to 9 k-points.

---------- Setting up k-points, bands, fillings ----------
Reduced to 3 k-points under symmetry. 
Computing the number of bands and number of electrons
Calculating initial fillings.
nElectrons: 672.000000   nBands: 512   nStates: 3

----- Setting up reduced wavefunction bases (one per k-point) -----
average nbasis = 64091.000 , ideal nbasis = 64096.946

---------- Setting up coulomb interaction ----------
Fluid mode embedding: using embedded box, but periodic Coulomb kernel.
(Fluid response is responsible for (approximate) separation between periodic images.)
Setting up double-sized grid for truncated Coulomb potentials:
R = 
[    21.7009   -10.8504          0  ]
[          0    18.7935          0  ]
[          0          0    73.5772  ]
unit cell volume = 30007.4
G =
[   0.289536   0.167163         -0  ]
[          0   0.334327          0  ]
[          0         -0  0.0853958  ]
Chosen fftbox size, S = [  90  90  320  ]
Integer grid location selected as the embedding center:
   Grid: [  45  45  80  ]
   Lattice: [  0.5  0.5  0.5  ]
   Cartesian: [  5.42523  9.39676  18.3943  ]
Constructing Wigner-Seitz cell: 8 faces (6 quadrilaterals, 2 hexagons)
Range-separation parameter for embedded mesh potentials due to point charges: 0.61948 bohrs.

Initializing van der Waals corrections
	NOTE: vdW corrections apply only for interactions with fluid.
	 V:  C6:  187.33 Eh-a0^6  R0: 2.952 a0
	 C:  C6:   30.35 Eh-a0^6  R0: 2.744 a0
	 O:  C6:   12.14 Eh-a0^6  R0: 2.536 a0

---------- Setting up ewald sum ----------
Optimum gaussian width for ewald sums = 5.972248 bohr.
Real space sum over 605 unit cells with max indices [  5  5  2  ]
Reciprocal space sum over 9225 terms with max indices [  7  7  20  ]

---------- Allocating electronic variables ----------
Initializing wave functions:  linear combination of atomic orbitals
V pseudo-atom occupations:   s ( 2 0 )  p ( 6 )  d ( 5 )
C pseudo-atom occupations:   s ( 2 )  p ( 2 )
O pseudo-atom occupations:   s ( 2 )  p ( 4 )
	FillingsUpdate:  mu: -0.171251800  nElectrons: 672.000000
LCAOMinimize: Iter:   0  G: -2719.7171400887664277  |grad|_K:  1.799e-02  alpha:  1.000e+00
	FillingsUpdate:  mu: -0.171251800  nElectrons: 672.000000
LCAOMinimize: Iter:   1  G: -2757.2139164012282890  |grad|_K:  1.068e-02  alpha:  1.765e-01  linmin: -2.678e-01  cgtest:  1.021e+00  t[s]:     48.42
LCAOMinimize: Encountered beta<0, resetting CG.
LCAOMinimize: 	Wrong curvature in test step, increasing alphaT to 5.293998e-01.
	FillingsUpdate:  mu: -0.171251800  nElectrons: 672.000000
LCAOMinimize: Iter:   2  G: -2776.3072900707657027  |grad|_K:  8.804e-03  alpha: -4.371e-01  linmin: -3.098e-01  cgtest:  6.215e-01  t[s]:     63.34
	FillingsUpdate:  mu: -0.171251800  nElectrons: 672.000000
LCAOMinimize: Iter:   3  G: -2782.3729210762012372  |grad|_K:  5.659e-03  alpha:  8.197e-02  linmin: -3.434e-01  cgtest:  8.130e-01  t[s]:     78.49
LCAOMinimize: Encountered beta<0, resetting CG.
LCAOMinimize: 	Predicted alpha/alphaT>3.000000, increasing alphaT to 2.459109e-01.
	FillingsUpdate:  mu: -0.171251800  nElectrons: 672.000000
LCAOMinimize: Iter:   4  G: -2785.0609033875543901  |grad|_K:  1.959e-03  alpha:  1.801e-01  linmin:  1.445e-02  cgtest:  2.320e-02  t[s]:     98.52
	FillingsUpdate:  mu: -0.171251800  nElectrons: 672.000000
LCAOMinimize: Iter:   5  G: -2785.2897083739853770  |grad|_K:  2.787e-04  alpha:  1.527e-01  linmin:  1.662e-02  cgtest:  1.691e-01  t[s]:    113.65
LCAOMinimize: Encountered beta<0, resetting CG.
	FillingsUpdate:  mu: -0.171251800  nElectrons: 672.000000
LCAOMinimize: Iter:   6  G: -2785.2984563284808246  |grad|_K:  2.266e-04  alpha:  2.664e-01  linmin: -6.259e-02  cgtest:  2.064e-01  t[s]:    128.72
	FillingsUpdate:  mu: -0.171251800  nElectrons: 672.000000
LCAOMinimize: Iter:   7  G: -2785.3011990605627943  |grad|_K:  1.199e-04  alpha:  1.670e-01  linmin: -2.376e-01  cgtest:  7.397e-01  t[s]:    143.88
LCAOMinimize: Encountered beta<0, resetting CG.
	FillingsUpdate:  mu: -0.171251800  nElectrons: 672.000000
LCAOMinimize: Iter:   8  G: -2785.3015530964344180  |grad|_K:  9.737e-05  alpha:  1.085e-01  linmin: -3.160e-01  cgtest:  9.751e-01  t[s]:    159.04
LCAOMinimize: Encountered beta<0, resetting CG.
	FillingsUpdate:  mu: -0.171251800  nElectrons: 672.000000
LCAOMinimize: Iter:   9  G: -2785.3016786620992207  |grad|_K:  8.845e-05  alpha:  6.910e-02  linmin: -3.253e-01  cgtest:  9.970e-01  t[s]:    174.19
LCAOMinimize: Encountered beta<0, resetting CG.
	FillingsUpdate:  mu: -0.171251800  nElectrons: 672.000000
LCAOMinimize: Iter:  10  G: -2785.3017299827597526  |grad|_K:  8.386e-05  alpha:  4.213e-02  linmin: -3.284e-01  cgtest:  9.993e-01  t[s]:    189.35
LCAOMinimize: Encountered beta<0, resetting CG.
	FillingsUpdate:  mu: -0.171251800  nElectrons: 672.000000
LCAOMinimize: Iter:  11  G: -2785.3017534345444801  |grad|_K:  8.134e-05  alpha:  2.502e-02  linmin: -3.300e-01  cgtest:  9.998e-01  t[s]:    204.33
LCAOMinimize: Encountered beta<0, resetting CG.
	FillingsUpdate:  mu: -0.171251800  nElectrons: 672.000000
LCAOMinimize: Iter:  12  G: -2785.3017650194260568  |grad|_K:  7.993e-05  alpha:  1.463e-02  linmin: -3.308e-01  cgtest:  9.999e-01  t[s]:    219.49
LCAOMinimize: Encountered beta<0, resetting CG.
	FillingsUpdate:  mu: -0.171251800  nElectrons: 672.000000
LCAOMinimize: Iter:  13  G: -2785.3017710648700813  |grad|_K:  7.913e-05  alpha:  8.484e-03  linmin: -3.313e-01  cgtest:  9.999e-01  t[s]:    234.67
LCAOMinimize: Encountered beta<0, resetting CG.
	FillingsUpdate:  mu: -0.171251800  nElectrons: 672.000000
LCAOMinimize: Iter:  14  G: -2785.3017743366926879  |grad|_K:  7.867e-05  alpha:  4.893e-03  linmin: -3.315e-01  cgtest:  1.000e+00  t[s]:    250.05
LCAOMinimize: Encountered beta<0, resetting CG.
	FillingsUpdate:  mu: -0.171251800  nElectrons: 672.000000
LCAOMinimize: Iter:  15  G: -2785.3017761486389645  |grad|_K:  7.841e-05  alpha:  2.814e-03  linmin: -3.317e-01  cgtest:  1.000e+00  t[s]:    265.51
LCAOMinimize: Encountered beta<0, resetting CG.
	FillingsUpdate:  mu: -0.171251800  nElectrons: 672.000000
LCAOMinimize: Iter:  16  G: -2785.3017771662052837  |grad|_K:  7.826e-05  alpha:  1.615e-03  linmin: -3.318e-01  cgtest:  1.000e+00  t[s]:    280.96
LCAOMinimize: Encountered beta<0, resetting CG.
	FillingsUpdate:  mu: -0.171251800  nElectrons: 672.000000
LCAOMinimize: Iter:  17  G: -2785.3017777424447559  |grad|_K:  7.818e-05  alpha:  9.264e-04  linmin: -3.318e-01  cgtest:  1.000e+00  t[s]:    296.01
LCAOMinimize: Encountered beta<0, resetting CG.
	FillingsUpdate:  mu: -0.171251800  nElectrons: 672.000000
LCAOMinimize: Iter:  18  G: -2785.3017780702402888  |grad|_K:  7.813e-05  alpha:  5.310e-04  linmin: -3.318e-01  cgtest:  1.000e+00  t[s]:    311.37
LCAOMinimize: Encountered beta<0, resetting CG.
LCAOMinimize: Converged (|Delta G|<1.000000e-06 for 2 iters).
----- createFluidSolver() ----- (Fluid-side solver setup)
   Initializing fluid molecule 'H2O'
     Initializing site 'O'
       Electron density: proportional to exp(-r/0.36935)*erfc((r-0.51523)/0.36823) with norm 6.826
       Charge density: gaussian nuclear width 0.478731 with net site charge 0.826
       Polarizability: cuspless exponential with width 0.32 and norm 3.73
       Hard sphere radius: 2.57003 bohrs
       Positions in reference frame:
         [ +0.000000 +0.000000 +0.000000 ]
     Initializing site 'H'
       Electron density: proportional to exp(-r/0.34641)*erfc((r-0)/0.390882) with norm 0.587
       Charge density: gaussian nuclear width 0.377945 with net site charge -0.413
       Polarizability: cuspless exponential with width 0.39 and norm 3.3
       Positions in reference frame:
         [ +0.000000 -1.441945 +1.122523 ]
         [ +0.000000 +1.441945 +1.122523 ]
     Net charge: 0   dipole magnitude: 0.927204
     Initializing spherical shell mfKernel with radius 2.61727 Bohr
     deltaS corrections:
       site 'O': -7.54299
       site 'H': -6.83917
   Initializing fluid molecule 'Na+'
     Initializing site 'Na'
       Electron density: proportional to exp(-r/0.19682)*erfc((r-0.71491)/0.41314) with norm 8.1383
       Charge density: gaussian nuclear width 0.365347 with net site charge -1
       Hard sphere radius: 1.86327 bohrs
       Positions in reference frame:
         [ +0.000000 +0.000000 +0.000000 ]
     Net charge: -1   dipole magnitude: 0
     Initializing gaussian mfKernel with width: 1.55004 Bohr
     deltaS corrections:
       site 'Na': -22.3555
   Initializing fluid molecule 'F-'
     Initializing site 'F'
       Electron density: proportional to exp(-r/0.38886)*erfc((r-0)/0.438782) with norm 8
       Charge density: gaussian nuclear width 0.374796 with net site charge 1
       Hard sphere radius: 2.39995 bohrs
       Positions in reference frame:
         [ +0.000000 +0.000000 +0.000000 ]
     Net charge: 1   dipole magnitude: 0
     Initializing gaussian mfKernel with width: 1.59012 Bohr
     deltaS corrections:
       site 'F': -9.04335

Correction to mu due to finite nuclear width = -0.0222198
   Cavity determined by nc: 0.00142 and sigma: 0.707107
   Nonlocal vdW cavity from gaussian model electron density with norm = 8 and sigma = 0.993594 bohr
   Charge asymmetry in cavity with sensitivity pCavity = 36.5 e-bohr/Eh
   Electrostatic cavity expanded by eta = 1.46 bohrs
   Weighted density cavitation model constrained by Nbulk: 0.0049383 bohr^-3, Pvap: 3.14029 kPa, Rvdw: 2.61727 bohr and sigmaBulk: 4.62e-05 Eh/bohr^2 at T: 298 K.
   Weighted density dispersion model using vdW pair potentials with single solvent site with sqrtC6eff: 0.77 SI.


---- Citations for features of the code used in this run ----

   Software package:
      R. Sundararaman, K. Letchworth-Weaver, K.A. Schwarz, D. Gunceler, Y. Ozhabes and T.A. Arias, 'JDFTx: software for joint density-functional theory', SoftwareX 6, 278 (2017)

   gga-PBE exchange-correlation functional:
      J.P. Perdew, K. Burke and M. Ernzerhof, Phys. Rev. Lett. 77, 3865 (1996)

   Pseudopotentials:
      KF Garrity, JW Bennett, KM Rabe and D Vanderbilt, Comput. Mater. Sci. 81, 446 (2014)

   Truncated Coulomb potentials:
      R. Sundararaman and T.A. Arias, Phys. Rev. B 87, 165122 (2013)

   Van der Waals correction pair-potentials:
      S. Grimme, J. Comput. Chem. 27, 1787 (2006)

   Charge-asymmetric nonlocally-determined local-electric (CANDLE) solvation model:
      R. Sundararaman and W.A. Goddard III, J. Chem. Phys. 142, 064107 (2015)

   Total energy minimization with Auxiliary Hamiltonian:
      C. Freysoldt, S. Boeck, and J. Neugebauer, Phys. Rev. B 79, 241103(R) (2009)

   Grand-canonical (fixed-potential) DFT:
      R. Sundararaman, W. A. Goddard III and T. A. Arias, J. Chem. Phys. 146, 114104 (2017)

This list may not be complete. Please suggest additional citations or
report any other bugs at https://github.com/shankar1729/jdftx/issues

Initialization completed successfully at t[s]:    315.62

Fluid solver invoked on fresh (partially random / LCAO) wavefunctions
Running a vacuum solve first:

-------- Initial electronic minimization -----------
	FillingsUpdate:  mu: -0.126140205  nElectrons: 672.000000
ElecMinimize: Iter:   0  G: -2785.424010318238743  |grad|_K:  2.056e-04  alpha:  1.000e+00
	FillingsUpdate:  mu: -0.077986743  nElectrons: 672.000000
	SubspaceRotationAdjust: set factor to 0.909
ElecMinimize: Iter:   1  G: -2787.399613042605779  |grad|_K:  1.424e-04  alpha:  4.718e-01  linmin:  1.175e-06  t[s]:    351.24
	FillingsUpdate:  mu: -0.167585139  nElectrons: 672.000000
	SubspaceRotationAdjust: set factor to 0.559
ElecMinimize: Iter:   2  G: -2787.863331672860568  |grad|_K:  1.006e-04  alpha:  2.619e-01  linmin:  3.979e-05  t[s]:    372.67
	FillingsUpdate:  mu: -0.112074861  nElectrons: 672.000000
	SubspaceRotationAdjust: set factor to 0.636
ElecMinimize: Iter:   3  G: -2788.121388097572890  |grad|_K:  4.135e-05  alpha:  2.672e-01  linmin:  6.214e-06  t[s]:    394.22
	FillingsUpdate:  mu: -0.109996133  nElectrons: 672.000000
	SubspaceRotationAdjust: set factor to 0.603
ElecMinimize: Iter:   4  G: -2788.201691743315223  |grad|_K:  2.440e-05  alpha:  4.790e-01  linmin:  1.056e-05  t[s]:    415.64
	FillingsUpdate:  mu: -0.122368605  nElectrons: 672.000000
	SubspaceRotationAdjust: set factor to 0.53
ElecMinimize: Iter:   5  G: -2788.224174369341199  |grad|_K:  1.324e-05  alpha:  3.841e-01  linmin:  2.466e-06  t[s]:    437.11
	FillingsUpdate:  mu: -0.114802164  nElectrons: 672.000000
	SubspaceRotationAdjust: set factor to 0.472
ElecMinimize: Iter:   6  G: -2788.230607473730288  |grad|_K:  8.493e-06  alpha:  3.718e-01  linmin:  3.065e-05  t[s]:    458.75
	FillingsUpdate:  mu: -0.116532144  nElectrons: 672.000000
	SubspaceRotationAdjust: set factor to 0.53
ElecMinimize: Iter:   7  G: -2788.233466113976192  |grad|_K:  4.616e-06  alpha:  4.029e-01  linmin:  5.639e-06  t[s]:    480.09
	FillingsUpdate:  mu: -0.117609078  nElectrons: 672.000000
	SubspaceRotationAdjust: set factor to 0.598
ElecMinimize: Iter:   8  G: -2788.234584189356610  |grad|_K:  3.192e-06  alpha:  5.330e-01  linmin:  5.496e-06  t[s]:    501.45
	FillingsUpdate:  mu: -0.116844817  nElectrons: 672.000000
	SubspaceRotationAdjust: set factor to 0.643
ElecMinimize: Iter:   9  G: -2788.234937380863812  |grad|_K:  1.987e-06  alpha:  3.514e-01  linmin: -3.068e-07  t[s]:    522.88
	FillingsUpdate:  mu: -0.117444458  nElectrons: 672.000000
	SubspaceRotationAdjust: set factor to 0.699
ElecMinimize: Iter:  10  G: -2788.235112637712973  |grad|_K:  1.182e-06  alpha:  4.500e-01  linmin:  5.344e-06  t[s]:    544.04
	FillingsUpdate:  mu: -0.117121838  nElectrons: 672.000000
	SubspaceRotationAdjust: set factor to 0.767
ElecMinimize: Iter:  11  G: -2788.235171060924131  |grad|_K:  8.192e-07  alpha:  4.256e-01  linmin:  1.655e-06  t[s]:    565.42
	FillingsUpdate:  mu: -0.117186535  nElectrons: 672.000000
	SubspaceRotationAdjust: set factor to 0.863
ElecMinimize: Iter:  12  G: -2788.235197033867280  |grad|_K:  4.773e-07  alpha:  3.928e-01  linmin:  1.315e-06  t[s]:    586.74
	FillingsUpdate:  mu: -0.117284401  nElectrons: 672.000000
	SubspaceRotationAdjust: set factor to 0.951
ElecMinimize: Iter:  13  G: -2788.235206347861094  |grad|_K:  2.993e-07  alpha:  4.152e-01  linmin:  8.848e-07  t[s]:    608.36
	FillingsUpdate:  mu: -0.117225869  nElectrons: 672.000000
	SubspaceRotationAdjust: set factor to 0.971
ElecMinimize: Iter:  14  G: -2788.235209961492728  |grad|_K:  2.145e-07  alpha:  4.096e-01  linmin:  2.872e-07  t[s]:    629.53
	FillingsUpdate:  mu: -0.117313453  nElectrons: 672.000000
	SubspaceRotationAdjust: set factor to 0.865
ElecMinimize: Iter:  15  G: -2788.235211454618820  |grad|_K:  1.501e-07  alpha:  3.288e-01  linmin:  1.544e-07  t[s]:    650.94
	FillingsUpdate:  mu: -0.117229923  nElectrons: 672.000000
	SubspaceRotationAdjust: set factor to 0.691
ElecMinimize: Iter:  16  G: -2788.235212128389321  |grad|_K:  1.025e-07  alpha:  3.029e-01  linmin:  5.891e-08  t[s]:    672.06
	FillingsUpdate:  mu: -0.117270676  nElectrons: 672.000000
	SubspaceRotationAdjust: set factor to 0.731
ElecMinimize: Iter:  17  G: -2788.235212515263811  |grad|_K:  6.093e-08  alpha:  3.730e-01  linmin:  2.381e-07  t[s]:    693.20
	FillingsUpdate:  mu: -0.117276599  nElectrons: 672.000000
	SubspaceRotationAdjust: set factor to 0.843
ElecMinimize: Iter:  18  G: -2788.235212661949845  |grad|_K:  4.188e-08  alpha:  4.012e-01  linmin:  7.000e-08  t[s]:    715.14
	FillingsUpdate:  mu: -0.117254431  nElectrons: 672.000000
	SubspaceRotationAdjust: set factor to 0.838
ElecMinimize: Iter:  19  G: -2788.235212736958147  |grad|_K:  3.208e-08  alpha:  4.328e-01  linmin: -3.343e-08  t[s]:    737.18
	FillingsUpdate:  mu: -0.117269597  nElectrons: 672.000000
	SubspaceRotationAdjust: set factor to 0.753
ElecMinimize: Iter:  20  G: -2788.235212772223349  |grad|_K:  2.393e-08  alpha:  3.459e-01  linmin: -8.680e-08  t[s]:    759.08
	FillingsUpdate:  mu: -0.117262313  nElectrons: 672.000000
	SubspaceRotationAdjust: set factor to 0.751
ElecMinimize: Iter:  21  G: -2788.235212792497350  |grad|_K:  1.501e-08  alpha:  3.591e-01  linmin: -1.058e-08  t[s]:    781.02
	FillingsUpdate:  mu: -0.117264236  nElectrons: 672.000000
	SubspaceRotationAdjust: set factor to 0.843
ElecMinimize: Iter:  22  G: -2788.235212802390834  |grad|_K:  1.070e-08  alpha:  4.540e-01  linmin:  5.403e-07  t[s]:    803.21
	FillingsUpdate:  mu: -0.117266844  nElectrons: 672.000000
	SubspaceRotationAdjust: set factor to 0.918
ElecMinimize: Iter:  23  G: -2788.235212806651816  |grad|_K:  7.354e-09  alpha:  3.936e-01  linmin:  2.336e-07  t[s]:    824.90
ElecMinimize: Converged (|Delta G|<1.000000e-08 for 2 iters).
Setting wave functions to eigenvectors of Hamiltonian
Vacuum energy after initial minimize, F = -2788.235212806651816

Shifting auxilliary hamiltonian by -0.053985 to set nElectrons=672.000000
	Linear fluid (dielectric constant: 78.4, screening length: 5.74355 Bohr) occupying 0.756561 of unit cell:	Completed after 17 iterations at t[s]:    833.50

-------- Electronic minimization -----------
	Linear fluid (dielectric constant: 78.4, screening length: 5.74355 Bohr) occupying 0.756561 of unit cell:	Completed after 0 iterations at t[s]:    841.66
	FillingsUpdate:  mu: -0.171251800  nElectrons: 672.000000
ElecMinimize: Iter:   0  G: -2788.230940445961096  |grad|_K:  1.469e-04  alpha:  1.000e+00
	Linear fluid (dielectric constant: 78.4, screening length: 5.74355 Bohr) occupying 0.798199 of unit cell:	Completed after 21 iterations at t[s]:    863.38
	Linear fluid (dielectric constant: 78.4, screening length: 5.74355 Bohr) occupying 0.757028 of unit cell:	Completed after 25 iterations at t[s]:    879.80
	FillingsUpdate:  mu: -0.171251800  nElectrons: 672.362979
	SubspaceRotationAdjust: set factor to 0.46
ElecMinimize: Iter:   1  G: -2788.251019953029299  |grad|_K:  9.822e-05  alpha:  5.675e-03  linmin: -9.651e-02  t[s]:    894.03
	Linear fluid (dielectric constant: 78.4, screening length: 5.74355 Bohr) occupying 0.759459 of unit cell:	Completed after 15 iterations at t[s]:    903.45
	Linear fluid (dielectric constant: 78.4, screening length: 5.74355 Bohr) occupying 0.763703 of unit cell:	Completed after 16 iterations at t[s]:    917.37
	FillingsUpdate:  mu: -0.171251800  nElectrons: 673.174579
	SubspaceRotationAdjust: set factor to 0.358
ElecMinimize: Iter:   2  G: -2788.269246850916261  |grad|_K:  2.640e-05  alpha:  1.127e-02  linmin: -1.355e-03  t[s]:    930.44
	Linear fluid (dielectric constant: 78.4, screening length: 5.74355 Bohr) occupying 0.764472 of unit cell:	Completed after 11 iterations at t[s]:    938.97
ElecMinimize: 	Predicted alpha/alphaT>3.000000, increasing alphaT to 3.379930e-02.
	Linear fluid (dielectric constant: 78.4, screening length: 5.74355 Bohr) occupying 0.766081 of unit cell:	Completed after 12 iterations at t[s]:    951.93
ElecMinimize: 	Predicted alpha/alphaT>3.000000, increasing alphaT to 1.013979e-01.
	Linear fluid (dielectric constant: 78.4, screening length: 5.74355 Bohr) occupying 0.771214 of unit cell:	Completed after 15 iterations at t[s]:    964.52
	Linear fluid (dielectric constant: 78.4, screening length: 5.74355 Bohr) occupying 0.778899 of unit cell:	Completed after 18 iterations at t[s]:    979.07
	FillingsUpdate:  mu: -0.171251800  nElectrons: 674.332158
	SubspaceRotationAdjust: set factor to 0.209
ElecMinimize: Iter:   3  G: -2788.284260457803612  |grad|_K:  5.275e-05  alpha:  2.070e-01  linmin:  4.364e-04  t[s]:    992.64
	Linear fluid (dielectric constant: 78.4, screening length: 5.74355 Bohr) occupying 0.793167 of unit cell:	Completed after 21 iterations at t[s]:   1003.29
	Linear fluid (dielectric constant: 78.4, screening length: 5.74355 Bohr) occupying 0.786961 of unit cell:	Completed after 18 iterations at t[s]:   1018.04
	FillingsUpdate:  mu: -0.171251800  nElectrons: 675.182665
	SubspaceRotationAdjust: set factor to 0.153
ElecMinimize: Iter:   4  G: -2788.305880581051952  |grad|_K:  3.332e-05  alpha:  8.505e-02  linmin: -1.160e-05  t[s]:   1031.20
	Linear fluid (dielectric constant: 78.4, screening length: 5.74355 Bohr) occupying 0.785390 of unit cell:	Completed after 19 iterations at t[s]:   1041.10
	Linear fluid (dielectric constant: 78.4, screening length: 5.74355 Bohr) occupying 0.785685 of unit cell:	Completed after 15 iterations at t[s]:   1055.23
	FillingsUpdate:  mu: -0.171251800  nElectrons: 675.058897
	SubspaceRotationAdjust: set factor to 0.17
ElecMinimize: Iter:   5  G: -2788.313506979511203  |grad|_K:  2.052e-05  alpha:  6.953e-02  linmin: -1.166e-05  t[s]:   1068.31
	Linear fluid (dielectric constant: 78.4, screening length: 5.74355 Bohr) occupying 0.785051 of unit cell:	Completed after 16 iterations at t[s]:   1077.67
	Linear fluid (dielectric constant: 78.4, screening length: 5.74355 Bohr) occupying 0.784253 of unit cell:	Completed after 17 iterations at t[s]:   1091.46
	FillingsUpdate:  mu: -0.171251800  nElectrons: 674.934084
	SubspaceRotationAdjust: set factor to 0.142
ElecMinimize: Iter:   6  G: -2788.319953461433215  |grad|_K:  2.379e-05  alpha:  1.549e-01  linmin:  1.401e-05  t[s]:   1104.78
	Linear fluid (dielectric constant: 78.4, screening length: 5.74355 Bohr) occupying 0.786432 of unit cell:	Completed after 16 iterations at t[s]:   1113.89
	Linear fluid (dielectric constant: 78.4, screening length: 5.74355 Bohr) occupying 0.785943 of unit cell:	Completed after 11 iterations at t[s]:   1127.01
	FillingsUpdate:  mu: -0.171251800  nElectrons: 675.169634
	SubspaceRotationAdjust: set factor to 0.135
ElecMinimize: Iter:   7  G: -2788.326522768657014  |grad|_K:  1.591e-05  alpha:  1.175e-01  linmin:  4.678e-06  t[s]:   1139.57
	Linear fluid (dielectric constant: 78.4, screening length: 5.74355 Bohr) occupying 0.788162 of unit cell:	Completed after 18 iterations at t[s]:   1149.66
	Linear fluid (dielectric constant: 78.4, screening length: 5.74355 Bohr) occupying 0.787751 of unit cell:	Completed after 15 iterations at t[s]:   1163.66
	FillingsUpdate:  mu: -0.171251800  nElectrons: 675.423068
	SubspaceRotationAdjust: set factor to 0.136
ElecMinimize: Iter:   8  G: -2788.328897420722569  |grad|_K:  1.113e-05  alpha:  9.423e-02  linmin:  5.600e-05  t[s]:   1176.76
	Linear fluid (dielectric constant: 78.4, screening length: 5.74355 Bohr) occupying 0.788387 of unit cell:	Completed after 16 iterations at t[s]:   1186.49
	Linear fluid (dielectric constant: 78.4, screening length: 5.74355 Bohr) occupying 0.788810 of unit cell:	Completed after 15 iterations at t[s]:   1199.81
	FillingsUpdate:  mu: -0.171251800  nElectrons: 675.598711
	SubspaceRotationAdjust: set factor to 0.101
	SubspaceRotationAdjust: resetting CG because factor has changed by 0.109944
	Linear fluid (dielectric constant: 78.4, screening length: 5.74355 Bohr) occupying 0.788810 of unit cell:	Completed after 0 iterations at t[s]:   1216.35
ElecMinimize: 	State modified externally: resetting search direction.
ElecMinimize: Iter:   9  G: -2788.330833867261845  |grad|_K:  1.187e-05  alpha:  1.601e-01
	Linear fluid (dielectric constant: 78.4, screening length: 5.74355 Bohr) occupying 0.787322 of unit cell:	Completed after 18 iterations at t[s]:   1237.42
	Linear fluid (dielectric constant: 78.4, screening length: 5.74355 Bohr) occupying 0.787205 of unit cell:	Completed after 11 iterations at t[s]:   1250.79
	FillingsUpdate:  mu: -0.171251800  nElectrons: 675.373542
	SubspaceRotationAdjust: set factor to 0.122
ElecMinimize: Iter:  10  G: -2788.333231592518587  |grad|_K:  5.382e-06  alpha:  1.719e-01  linmin: -1.091e-03  t[s]:   1263.31
	Linear fluid (dielectric constant: 78.4, screening length: 5.74355 Bohr) occupying 0.787215 of unit cell:	Completed after 12 iterations at t[s]:   1272.24
ElecMinimize: 	Predicted alpha/alphaT>3.000000, increasing alphaT to 5.156717e-01.
	Linear fluid (dielectric constant: 78.4, screening length: 5.74355 Bohr) occupying 0.787233 of unit cell:	Completed after 15 iterations at t[s]:   1285.05
	Linear fluid (dielectric constant: 78.4, screening length: 5.74355 Bohr) occupying 0.787235 of unit cell:	Completed after 7 iterations at t[s]:   1297.71
	FillingsUpdate:  mu: -0.171251800  nElectrons: 675.384797
	SubspaceRotationAdjust: set factor to 0.13
ElecMinimize: Iter:  11  G: -2788.334817413981000  |grad|_K:  4.703e-06  alpha:  5.452e-01  linmin: -2.538e-05  t[s]:   1309.71
	Linear fluid (dielectric constant: 78.4, screening length: 5.74355 Bohr) occupying 0.786215 of unit cell:	Completed after 15 iterations at t[s]:   1318.82
	Linear fluid (dielectric constant: 78.4, screening length: 5.74355 Bohr) occupying 0.785885 of unit cell:	Completed after 12 iterations at t[s]:   1332.20
	FillingsUpdate:  mu: -0.171251800  nElectrons: 675.229743
	SubspaceRotationAdjust: set factor to 0.189
ElecMinimize: Iter:  12  G: -2788.336381181320121  |grad|_K:  3.479e-06  alpha:  7.137e-01  linmin: -3.472e-05  t[s]:   1344.98
	Linear fluid (dielectric constant: 78.4, screening length: 5.74355 Bohr) occupying 0.784962 of unit cell:	Completed after 15 iterations at t[s]:   1354.59
	Linear fluid (dielectric constant: 78.4, screening length: 5.74355 Bohr) occupying 0.784914 of unit cell:	Completed after 8 iterations at t[s]:   1367.16
	FillingsUpdate:  mu: -0.171251800  nElectrons: 675.127552
	SubspaceRotationAdjust: set factor to 0.119
ElecMinimize: Iter:  13  G: -2788.337281233183603  |grad|_K:  5.383e-06  alpha:  7.499e-01  linmin:  2.941e-06  t[s]:   1379.47
	Linear fluid (dielectric constant: 78.4, screening length: 5.74355 Bohr) occupying 0.788170 of unit cell:	Completed after 19 iterations at t[s]:   1389.46
	Linear fluid (dielectric constant: 78.4, screening length: 5.74355 Bohr) occupying 0.785713 of unit cell:	Completed after 18 iterations at t[s]:   1403.91
	FillingsUpdate:  mu: -0.171251800  nElectrons: 675.230370
	SubspaceRotationAdjust: set factor to 0.0864
ElecMinimize: Iter:  14  G: -2788.337780975589794  |grad|_K:  3.579e-06  alpha:  1.691e-01  linmin: -8.765e-05  t[s]:   1417.15
	Linear fluid (dielectric constant: 78.4, screening length: 5.74355 Bohr) occupying 0.785854 of unit cell:	Completed after 9 iterations at t[s]:   1425.71
ElecMinimize: 	Predicted alpha/alphaT>3.000000, increasing alphaT to 5.073295e-01.
	Linear fluid (dielectric constant: 78.4, screening length: 5.74355 Bohr) occupying 0.786130 of unit cell:	Completed after 12 iterations at t[s]:   1437.84
	Linear fluid (dielectric constant: 78.4, screening length: 5.74355 Bohr) occupying 0.786155 of unit cell:	Completed after 2 iterations at t[s]:   1448.74
	FillingsUpdate:  mu: -0.171251800  nElectrons: 675.298369
	SubspaceRotationAdjust: set factor to 0.106
ElecMinimize: Iter:  15  G: -2788.338480698679177  |grad|_K:  3.046e-06  alpha:  5.382e-01  linmin:  7.221e-06  t[s]:   1460.31
	Linear fluid (dielectric constant: 78.4, screening length: 5.74355 Bohr) occupying 0.785500 of unit cell:	Completed after 16 iterations at t[s]:   1470.34
	Linear fluid (dielectric constant: 78.4, screening length: 5.74355 Bohr) occupying 0.785815 of unit cell:	Completed after 15 iterations at t[s]:   1483.70
	FillingsUpdate:  mu: -0.171251800  nElectrons: 675.262271
	SubspaceRotationAdjust: set factor to 0.0876
ElecMinimize: Iter:  16  G: -2788.338738956610996  |grad|_K:  2.275e-06  alpha:  2.822e-01  linmin:  2.120e-07  t[s]:   1496.82
	Linear fluid (dielectric constant: 78.4, screening length: 5.74355 Bohr) occupying 0.785982 of unit cell:	Completed after 11 iterations at t[s]:   1505.27
	Linear fluid (dielectric constant: 78.4, screening length: 5.74355 Bohr) occupying 0.786057 of unit cell:	Completed after 11 iterations at t[s]:   1517.92
	FillingsUpdate:  mu: -0.171251800  nElectrons: 675.298235
	SubspaceRotationAdjust: set factor to 0.105
ElecMinimize: Iter:  17  G: -2788.338948357391473  |grad|_K:  1.605e-06  alpha:  4.098e-01  linmin:  3.524e-06  t[s]:   1529.95
	Linear fluid (dielectric constant: 78.4, screening length: 5.74355 Bohr) occupying 0.786235 of unit cell:	Completed after 12 iterations at t[s]:   1538.63
	Linear fluid (dielectric constant: 78.4, screening length: 5.74355 Bohr) occupying 0.786269 of unit cell:	Completed after 5 iterations at t[s]:   1550.02
	FillingsUpdate:  mu: -0.171251800  nElectrons: 675.329131
	SubspaceRotationAdjust: set factor to 0.0883
ElecMinimize: Iter:  18  G: -2788.339072482142001  |grad|_K:  1.672e-06  alpha:  4.882e-01  linmin: -7.903e-06  t[s]:   1561.69
	Linear fluid (dielectric constant: 78.4, screening length: 5.74355 Bohr) occupying 0.785912 of unit cell:	Completed after 15 iterations at t[s]:   1571.33
	Linear fluid (dielectric constant: 78.4, screening length: 5.74355 Bohr) occupying 0.786058 of unit cell:	Completed after 12 iterations at t[s]:   1584.46
	FillingsUpdate:  mu: -0.171251800  nElectrons: 675.305888
	SubspaceRotationAdjust: set factor to 0.0782
ElecMinimize: Iter:  19  G: -2788.339153298818019  |grad|_K:  1.095e-06  alpha:  2.897e-01  linmin:  4.982e-06  t[s]:   1596.89
	Linear fluid (dielectric constant: 78.4, screening length: 5.74355 Bohr) occupying 0.786105 of unit cell:	Completed after 3 iterations at t[s]:   1604.16
	Linear fluid (dielectric constant: 78.4, screening length: 5.74355 Bohr) occupying 0.786151 of unit cell:	Completed after 2 iterations at t[s]:   1613.64
	FillingsUpdate:  mu: -0.171251800  nElectrons: 675.320942
	SubspaceRotationAdjust: set factor to 0.0983
ElecMinimize: Iter:  20  G: -2788.339220918767751  |grad|_K:  1.170e-06  alpha:  5.717e-01  linmin: -5.074e-07  t[s]:   1624.89
	Linear fluid (dielectric constant: 78.4, screening length: 5.74355 Bohr) occupying 0.786532 of unit cell:	Completed after 12 iterations at t[s]:   1633.74
	Linear fluid (dielectric constant: 78.4, screening length: 5.74355 Bohr) occupying 0.786420 of unit cell:	Completed after 11 iterations at t[s]:   1646.15
	FillingsUpdate:  mu: -0.171251800  nElectrons: 675.358409
	SubspaceRotationAdjust: set factor to 0.0912
ElecMinimize: Iter:  21  G: -2788.339275674507007  |grad|_K:  9.221e-07  alpha:  4.023e-01  linmin:  7.678e-06  t[s]:   1658.49
	Linear fluid (dielectric constant: 78.4, screening length: 5.74355 Bohr) occupying 0.786415 of unit cell:	Completed after 11 iterations at t[s]:   1667.24
	Linear fluid (dielectric constant: 78.4, screening length: 5.74355 Bohr) occupying 0.786414 of unit cell:	Completed after 0 iterations at t[s]:   1677.69
	FillingsUpdate:  mu: -0.171251800  nElectrons: 675.360314
	SubspaceRotationAdjust: set factor to 0.0884
ElecMinimize: Iter:  22  G: -2788.339310872222541  |grad|_K:  7.388e-07  alpha:  4.208e-01  linmin: -1.505e-05  t[s]:   1688.51
	Linear fluid (dielectric constant: 78.4, screening length: 5.74355 Bohr) occupying 0.786494 of unit cell:	Completed after 5 iterations at t[s]:   1696.20
	Linear fluid (dielectric constant: 78.4, screening length: 5.74355 Bohr) occupying 0.786487 of unit cell:	Completed after 0 iterations at t[s]:   1705.91
	FillingsUpdate:  mu: -0.171251800  nElectrons: 675.371822
	SubspaceRotationAdjust: set factor to 0.0988
ElecMinimize: Iter:  23  G: -2788.339331823831799  |grad|_K:  5.486e-07  alpha:  3.841e-01  linmin:  1.518e-05  t[s]:   1716.55
	Linear fluid (dielectric constant: 78.4, screening length: 5.74355 Bohr) occupying 0.786583 of unit cell:	Completed after 8 iterations at t[s]:   1724.90
	Linear fluid (dielectric constant: 78.4, screening length: 5.74355 Bohr) occupying 0.786597 of unit cell:	Completed after 2 iterations at t[s]:   1735.64
	FillingsUpdate:  mu: -0.171251800  nElectrons: 675.387966
	SubspaceRotationAdjust: set factor to 0.0874
ElecMinimize: Iter:  24  G: -2788.339344671199797  |grad|_K:  4.255e-07  alpha:  4.375e-01  linmin: -1.000e-05  t[s]:   1746.74
	Linear fluid (dielectric constant: 78.4, screening length: 5.74355 Bohr) occupying 0.786570 of unit cell:	Completed after 10 iterations at t[s]:   1755.25
	Linear fluid (dielectric constant: 78.4, screening length: 5.74355 Bohr) occupying 0.786578 of unit cell:	Completed after 3 iterations at t[s]:   1765.72
	FillingsUpdate:  mu: -0.171251800  nElectrons: 675.386552
	SubspaceRotationAdjust: set factor to 0.0696
ElecMinimize: Iter:  25  G: -2788.339350287499656  |grad|_K:  2.734e-07  alpha:  3.074e-01  linmin:  4.368e-05  t[s]:   1776.88
	Linear fluid (dielectric constant: 78.4, screening length: 5.74355 Bohr) occupying 0.786601 of unit cell:	Completed after 2 iterations at t[s]:   1783.82
	Linear fluid (dielectric constant: 78.4, screening length: 5.74355 Bohr) occupying 0.786608 of unit cell:	Completed after 0 iterations at t[s]:   1792.81
	FillingsUpdate:  mu: -0.171251800  nElectrons: 675.391295
	SubspaceRotationAdjust: set factor to 0.082
ElecMinimize: Iter:  26  G: -2788.339353285806283  |grad|_K:  1.934e-07  alpha:  4.141e-01  linmin: -3.635e-05  t[s]:   1803.36
	Linear fluid (dielectric constant: 78.4, screening length: 5.74355 Bohr) occupying 0.786641 of unit cell:	Completed after 8 iterations at t[s]:   1811.56
	Linear fluid (dielectric constant: 78.4, screening length: 5.74355 Bohr) occupying 0.786633 of unit cell:	Completed after 0 iterations at t[s]:   1821.74
	FillingsUpdate:  mu: -0.171251800  nElectrons: 675.394756
	SubspaceRotationAdjust: set factor to 0.0723
ElecMinimize: Iter:  27  G: -2788.339354422830183  |grad|_K:  1.736e-07  alpha:  3.127e-01  linmin: -5.650e-06  t[s]:   1833.07
	Linear fluid (dielectric constant: 78.4, screening length: 5.74355 Bohr) occupying 0.786614 of unit cell:	Completed after 5 iterations at t[s]:   1841.18
	Linear fluid (dielectric constant: 78.4, screening length: 5.74355 Bohr) occupying 0.786620 of unit cell:	Completed after 2 iterations at t[s]:   1851.17
	FillingsUpdate:  mu: -0.171251800  nElectrons: 675.393201
	SubspaceRotationAdjust: set factor to 0.0756
ElecMinimize: Iter:  28  G: -2788.339355005757625  |grad|_K:  1.013e-07  alpha:  2.152e-01  linmin: -8.202e-06  t[s]:   1862.24
	Linear fluid (dielectric constant: 78.4, screening length: 5.74355 Bohr) occupying 0.786616 of unit cell:	Completed after 0 iterations at t[s]:   1868.72
	Linear fluid (dielectric constant: 78.4, screening length: 5.74355 Bohr) occupying 0.786611 of unit cell:	Completed after 3 iterations at t[s]:   1878.43
	FillingsUpdate:  mu: -0.171251800  nElectrons: 675.392175
	SubspaceRotationAdjust: set factor to 0.0851
ElecMinimize: Iter:  29  G: -2788.339355387845444  |grad|_K:  8.637e-08  alpha:  4.607e-01  linmin:  1.416e-04  t[s]:   1889.70
	Linear fluid (dielectric constant: 78.4, screening length: 5.74355 Bohr) occupying 0.786626 of unit cell:	Completed after 1 iterations at t[s]:   1896.70
	Linear fluid (dielectric constant: 78.4, screening length: 5.74355 Bohr) occupying 0.786624 of unit cell:	Completed after 0 iterations at t[s]:   1905.84
	FillingsUpdate:  mu: -0.171251800  nElectrons: 675.393840
	SubspaceRotationAdjust: set factor to 0.0953
ElecMinimize: Iter:  30  G: -2788.339355623644224  |grad|_K:  6.618e-08  alpha:  3.919e-01  linmin:  5.782e-06  t[s]:   1917.00
	Linear fluid (dielectric constant: 78.4, screening length: 5.74355 Bohr) occupying 0.786630 of unit cell:	Completed after 0 iterations at t[s]:   1923.53
	Linear fluid (dielectric constant: 78.4, screening length: 5.74355 Bohr) occupying 0.786631 of unit cell:	Completed after 0 iterations at t[s]:   1932.00
	FillingsUpdate:  mu: -0.171251800  nElectrons: 675.394700
	SubspaceRotationAdjust: set factor to 0.117
ElecMinimize: Iter:  31  G: -2788.339355817982323  |grad|_K:  5.256e-08  alpha:  4.546e-01  linmin:  6.815e-08  t[s]:   1942.71
	Linear fluid (dielectric constant: 78.4, screening length: 5.74355 Bohr) occupying 0.786634 of unit cell:	Completed after 2 iterations at t[s]:   1949.87
	Linear fluid (dielectric constant: 78.4, screening length: 5.74355 Bohr) occupying 0.786633 of unit cell:	Completed after 0 iterations at t[s]:   1958.86
	FillingsUpdate:  mu: -0.171251800  nElectrons: 675.394973
	SubspaceRotationAdjust: set factor to 0.0944
ElecMinimize: Iter:  32  G: -2788.339355881110805  |grad|_K:  7.065e-08  alpha:  3.213e-01  linmin: -6.282e-05  t[s]:   1969.61
	Linear fluid (dielectric constant: 78.4, screening length: 5.74355 Bohr) occupying 0.786618 of unit cell:	Completed after 2 iterations at t[s]:   1976.89
	Linear fluid (dielectric constant: 78.4, screening length: 5.74355 Bohr) occupying 0.786622 of unit cell:	Completed after 0 iterations at t[s]:   1985.97
	FillingsUpdate:  mu: -0.171251800  nElectrons: 675.393404
	SubspaceRotationAdjust: set factor to 0.103
ElecMinimize: Iter:  33  G: -2788.339356024859626  |grad|_K:  5.985e-08  alpha:  2.380e-01  linmin:  7.351e-06  t[s]:   1996.81
	Linear fluid (dielectric constant: 78.4, screening length: 5.74355 Bohr) occupying 0.786615 of unit cell:	Completed after 0 iterations at t[s]:   2003.37
	Linear fluid (dielectric constant: 78.4, screening length: 5.74355 Bohr) occupying 0.786610 of unit cell:	Completed after 2 iterations at t[s]:   2012.93
	FillingsUpdate:  mu: -0.171251800  nElectrons: 675.391548
	SubspaceRotationAdjust: set factor to 0.114
ElecMinimize: Iter:  34  G: -2788.339356112014684  |grad|_K:  6.659e-08  alpha:  4.290e-01  linmin:  4.598e-05  t[s]:   2024.09
	Linear fluid (dielectric constant: 78.4, screening length: 5.74355 Bohr) occupying 0.786611 of unit cell:	Completed after 2 iterations at t[s]:   2031.23
	Linear fluid (dielectric constant: 78.4, screening length: 5.74355 Bohr) occupying 0.786610 of unit cell:	Completed after 0 iterations at t[s]:   2040.45
	FillingsUpdate:  mu: -0.171251800  nElectrons: 675.391437
	SubspaceRotationAdjust: set factor to 0.138
ElecMinimize: Iter:  35  G: -2788.339356177017635  |grad|_K:  6.733e-08  alpha:  2.359e-01  linmin:  3.747e-06  t[s]:   2051.11
	Linear fluid (dielectric constant: 78.4, screening length: 5.74355 Bohr) occupying 0.786616 of unit cell:	Completed after 0 iterations at t[s]:   2057.78
	Linear fluid (dielectric constant: 78.4, screening length: 5.74355 Bohr) occupying 0.786619 of unit cell:	Completed after 2 iterations at t[s]:   2066.59
	FillingsUpdate:  mu: -0.171251800  nElectrons: 675.392345
	SubspaceRotationAdjust: set factor to 0.132
ElecMinimize: Iter:  36  G: -2788.339356270251301  |grad|_K:  6.314e-08  alpha:  3.477e-01  linmin:  3.415e-05  t[s]:   2077.65
	Linear fluid (dielectric constant: 78.4, screening length: 5.74355 Bohr) occupying 0.786618 of unit cell:	Completed after 0 iterations at t[s]:   2084.36
	Linear fluid (dielectric constant: 78.4, screening length: 5.74355 Bohr) occupying 0.786619 of unit cell:	Completed after 0 iterations at t[s]:   2092.92
	FillingsUpdate:  mu: -0.171251800  nElectrons: 675.392054
	SubspaceRotationAdjust: set factor to 0.155
ElecMinimize: Iter:  37  G: -2788.339356336279707  |grad|_K:  5.634e-08  alpha:  2.604e-01  linmin: -1.670e-08  t[s]:   2103.85
	Linear fluid (dielectric constant: 78.4, screening length: 5.74355 Bohr) occupying 0.786612 of unit cell:	Completed after 2 iterations at t[s]:   2111.09
	Linear fluid (dielectric constant: 78.4, screening length: 5.74355 Bohr) occupying 0.786615 of unit cell:	Completed after 0 iterations at t[s]:   2120.20
	FillingsUpdate:  mu: -0.171251800  nElectrons: 675.391465
	SubspaceRotationAdjust: set factor to 0.168
ElecMinimize: Iter:  38  G: -2788.339356361559112  |grad|_K:  4.991e-08  alpha:  1.462e-01  linmin: -9.854e-06  t[s]:   2131.19
	Linear fluid (dielectric constant: 78.4, screening length: 5.74355 Bohr) occupying 0.786610 of unit cell:	Completed after 0 iterations at t[s]:   2137.59
	Linear fluid (dielectric constant: 78.4, screening length: 5.74355 Bohr) occupying 0.786607 of unit cell:	Completed after 0 iterations at t[s]:   2146.34
	FillingsUpdate:  mu: -0.171251800  nElectrons: 675.390367
	SubspaceRotationAdjust: set factor to 0.179
ElecMinimize: Iter:  39  G: -2788.339356423732625  |grad|_K:  4.413e-08  alpha:  2.303e-01  linmin: -9.415e-08  t[s]:   2157.31
	Linear fluid (dielectric constant: 78.4, screening length: 5.74355 Bohr) occupying 0.786597 of unit cell:	Completed after 2 iterations at t[s]:   2164.41
	Linear fluid (dielectric constant: 78.4, screening length: 5.74355 Bohr) occupying 0.786603 of unit cell:	Completed after 0 iterations at t[s]:   2173.63
	FillingsUpdate:  mu: -0.171251800  nElectrons: 675.389757
	SubspaceRotationAdjust: set factor to 0.158
ElecMinimize: Iter:  40  G: -2788.339356434781621  |grad|_K:  5.261e-08  alpha:  1.025e-01  linmin:  2.247e-05  t[s]:   2184.34
	Linear fluid (dielectric constant: 78.4, screening length: 5.74355 Bohr) occupying 0.786602 of unit cell:	Completed after 0 iterations at t[s]:   2190.96
	Linear fluid (dielectric constant: 78.4, screening length: 5.74355 Bohr) occupying 0.786602 of unit cell:	Completed after 0 iterations at t[s]:   2199.94
	FillingsUpdate:  mu: -0.171251800  nElectrons: 675.389611
	SubspaceRotationAdjust: set factor to 0.14
ElecMinimize: Iter:  41  G: -2788.339356457530812  |grad|_K:  4.654e-08  alpha:  1.040e-01  linmin: -4.483e-08  t[s]:   2210.64
	Linear fluid (dielectric constant: 78.4, screening length: 5.74355 Bohr) occupying 0.786606 of unit cell:	Completed after 0 iterations at t[s]:   2217.42
	Linear fluid (dielectric constant: 78.4, screening length: 5.74355 Bohr) occupying 0.786608 of unit cell:	Completed after 2 iterations at t[s]:   2226.95
ElecMinimize: 	Step increased G by 2.925572e-08, reducing alpha to 1.528880e-02.
	Linear fluid (dielectric constant: 78.4, screening length: 5.74355 Bohr) occupying 0.786602 of unit cell:	Completed after 0 iterations at t[s]:   2243.42
	FillingsUpdate:  mu: -0.171251800  nElectrons: 675.389689
	SubspaceRotationAdjust: set factor to 0.109
ElecMinimize: Iter:  42  G: -2788.339356466981371  |grad|_K:  3.711e-08  alpha:  1.529e-02  linmin:  2.313e-05  t[s]:   2254.46
	Linear fluid (dielectric constant: 78.4, screening length: 5.74355 Bohr) occupying 0.786603 of unit cell:	Completed after 0 iterations at t[s]:   2261.00
ElecMinimize: 	Predicted alpha/alphaT>3.000000, increasing alphaT to 4.586639e-02.
	Linear fluid (dielectric constant: 78.4, screening length: 5.74355 Bohr) occupying 0.786603 of unit cell:	Completed after 0 iterations at t[s]:   2269.81
	Linear fluid (dielectric constant: 78.4, screening length: 5.74355 Bohr) occupying 0.786604 of unit cell:	Completed after 0 iterations at t[s]:   2278.36
	FillingsUpdate:  mu: -0.171251800  nElectrons: 675.389855
	SubspaceRotationAdjust: set factor to 0.134
ElecMinimize: Iter:  43  G: -2788.339356481154027  |grad|_K:  3.241e-08  alpha:  1.284e-01  linmin: -2.300e-06  t[s]:   2289.30
	Linear fluid (dielectric constant: 78.4, screening length: 5.74355 Bohr) occupying 0.786604 of unit cell:	Completed after 0 iterations at t[s]:   2295.85
	Linear fluid (dielectric constant: 78.4, screening length: 5.74355 Bohr) occupying 0.786603 of unit cell:	Completed after 0 iterations at t[s]:   2304.89
	FillingsUpdate:  mu: -0.171251800  nElectrons: 675.389778
	SubspaceRotationAdjust: set factor to 0.159
ElecMinimize: Iter:  44  G: -2788.339356499723635  |grad|_K:  3.127e-08  alpha:  1.763e-01  linmin:  4.178e-07  t[s]:   2315.49
	Linear fluid (dielectric constant: 78.4, screening length: 5.74355 Bohr) occupying 0.786601 of unit cell:	Completed after 1 iterations at t[s]:   2322.36
	Linear fluid (dielectric constant: 78.4, screening length: 5.74355 Bohr) occupying 0.786603 of unit cell:	Completed after 0 iterations at t[s]:   2331.37
ElecMinimize: 	Step increased G by 9.760697e-09, reducing alpha to 5.742586e-03.
	Linear fluid (dielectric constant: 78.4, screening length: 5.74355 Bohr) occupying 0.786603 of unit cell:	Completed after 0 iterations at t[s]:   2347.19
ElecMinimize: 	Step increased G by 1.113176e-08, reducing alpha to 5.742586e-04.
	Linear fluid (dielectric constant: 78.4, screening length: 5.74355 Bohr) occupying 0.786603 of unit cell:	Completed after 0 iterations at t[s]:   2363.38
ElecMinimize: 	Step increased G by 1.145054e-08, reducing alpha to 5.742586e-05.
ElecMinimize: 	Step failed to reduce G after 3 attempts. Quitting step.
ElecMinimize: 	Undoing step.
	Linear fluid (dielectric constant: 78.4, screening length: 5.74355 Bohr) occupying 0.786603 of unit cell:	Completed after 0 iterations at t[s]:   2379.88
ElecMinimize: 	Step failed: resetting search direction.
	FillingsUpdate:  mu: -0.171251800  nElectrons: 675.389777
	SubspaceRotationAdjust: set factor to 0.149
ElecMinimize: Iter:  45  G: -2788.339356488271733  |grad|_K:  2.818e-08  alpha:  5.743e-05
	Linear fluid (dielectric constant: 78.4, screening length: 5.74355 Bohr) occupying 0.786606 of unit cell:	Completed after 0 iterations at t[s]:   2397.08
	Linear fluid (dielectric constant: 78.4, screening length: 5.74355 Bohr) occupying 0.786609 of unit cell:	Completed after 0 iterations at t[s]:   2406.13
	FillingsUpdate:  mu: -0.171251800  nElectrons: 675.390549
	SubspaceRotationAdjust: set factor to 0.212
ElecMinimize: Iter:  46  G: -2788.339356510133712  |grad|_K:  2.098e-08  alpha:  3.712e-01  linmin:  4.877e-05  t[s]:   2416.88
	Linear fluid (dielectric constant: 78.4, screening length: 5.74355 Bohr) occupying 0.786618 of unit cell:	Completed after 1 iterations at t[s]:   2423.99
	Linear fluid (dielectric constant: 78.4, screening length: 5.74355 Bohr) occupying 0.786611 of unit cell:	Completed after 0 iterations at t[s]:   2432.96
ElecMinimize: 	Step increased G by 2.837623e-09, reducing alpha to 8.689441e-03.
	Linear fluid (dielectric constant: 78.4, screening length: 5.74355 Bohr) occupying 0.786610 of unit cell:	Completed after 0 iterations at t[s]:   2449.41
	FillingsUpdate:  mu: -0.171251800  nElectrons: 675.390575
	SubspaceRotationAdjust: set factor to 0.123
ElecMinimize: Iter:  47  G: -2788.339356515384679  |grad|_K:  6.069e-08  alpha:  8.689e-03  linmin:  4.595e-04  t[s]:   2460.12
ElecMinimize: 	Bad step direction: g.d > 0.
ElecMinimize: 	Undoing step.
	Linear fluid (dielectric constant: 78.4, screening length: 5.74355 Bohr) occupying 0.786610 of unit cell:	Completed after 0 iterations at t[s]:   2466.61
ElecMinimize: 	Step failed: resetting search direction.
	FillingsUpdate:  mu: -0.171251800  nElectrons: 675.390575
	SubspaceRotationAdjust: set factor to 0.0782
ElecMinimize: Iter:  48  G: -2788.339356515385589  |grad|_K:  4.842e-08  alpha:  0.000e+00
ElecMinimize: Converged (|Delta G|<1.000000e-08 for 2 iters).
Setting wave functions to eigenvectors of Hamiltonian
Single-point solvation energy estimate, DeltaG = -0.104143708733773

# Ionic positions in lattice coordinates:
ion V   0.166666658916667   0.083333325633333   0.561660652738666 1
ion V   0.083333325583333   0.166666658966667   0.438323318461334 1
ion V   0.416666658916667   0.083333325633333   0.561660652738666 1
ion V   0.333333325583333   0.166666658966667   0.438323318461334 1
ion V   0.666666658916667   0.083333325633333   0.561660652738666 1
ion V   0.583333325583333   0.166666658966667   0.438323318461334 1
ion V   0.916666658916667   0.083333325633333   0.561660652738666 1
ion V   0.833333325583333   0.166666658966667   0.438323318461334 1
ion V   0.166666658916667   0.333333325633333   0.561660652738666 1
ion V   0.083333325583333   0.416666658966667   0.438323318461334 1
ion V   0.416666658916667   0.333333325633333   0.561660652738666 1
ion V   0.333333325583333   0.416666658966667   0.438323318461334 1
ion V   0.666666658916667   0.333333325633333   0.561660652738666 1
ion V   0.583333325583333   0.416666658966667   0.438323318461334 1
ion V   0.916666658916667   0.333333325633333   0.561660652738666 1
ion V   0.833333325583333   0.416666658966667   0.438323318461334 1
ion V   0.166666658916667   0.583333325633333   0.561660652738666 1
ion V   0.083333325583333   0.666666658966667   0.438323318461334 1
ion V   0.416666658916667   0.583333325633333   0.561660652738666 1
ion V   0.333333325583333   0.666666658966667   0.438323318461334 1
ion V   0.666666658916667   0.583333325633333   0.561660652738666 1
ion V   0.583333325583333   0.666666658966667   0.438323318461334 1
ion V   0.916666658916667   0.583333325633333   0.561660652738666 1
ion V   0.833333325583333   0.666666658966667   0.438323318461334 1
ion V   0.166666658916667   0.833333325633333   0.561660652738666 1
ion V   0.083333325583333   0.916666658966667   0.438323318461334 1
ion V   0.416666658916667   0.833333325633333   0.561660652738666 1
ion V   0.333333325583333   0.916666658966667   0.438323318461334 1
ion V   0.666666658916667   0.833333325633333   0.561660652738666 1
ion V   0.583333325583333   0.916666658966667   0.438323318461334 1
ion V   0.916666658916667   0.833333325633333   0.561660652738666 1
ion V   0.833333325583333   0.916666658966667   0.438323318461334 1
ion C  -0.000000007750000  -0.000000007700000   0.499991985600000 1
ion C   0.249999992250000  -0.000000007700000   0.499991985600000 1
ion C   0.499999992250000  -0.000000007700000   0.499991985600000 1
ion C   0.749999992250000  -0.000000007700000   0.499991985600000 1
ion C  -0.000000007750000   0.249999992300000   0.499991985600000 1
ion C   0.249999992250000   0.249999992300000   0.499991985600000 1
ion C   0.499999992250000   0.249999992300000   0.499991985600000 1
ion C   0.749999992250000   0.249999992300000   0.499991985600000 1
ion C  -0.000000007750000   0.499999992300000   0.499991985600000 1
ion C   0.249999992250000   0.499999992300000   0.499991985600000 1
ion C   0.499999992250000   0.499999992300000   0.499991985600000 1
ion C   0.749999992250000   0.499999992300000   0.499991985600000 1
ion C  -0.000000007750000   0.749999992300000   0.499991985600000 1
ion C   0.249999992250000   0.749999992300000   0.499991985600000 1
ion C   0.499999992250000   0.749999992300000   0.499991985600000 1
ion C   0.749999992250000   0.749999992300000   0.499991985600000 1
ion O   0.083333325583333   0.166666658966667   0.614324423076145 1
ion O   0.166666658916667   0.083333325633333   0.385659548123855 1
ion O   0.333333325583333   0.166666658966667   0.614324423076145 1
ion O   0.416666658916667   0.083333325633333   0.385659548123855 1
ion O   0.583333325583333   0.166666658966667   0.614324423076145 1
ion O   0.666666658916667   0.083333325633333   0.385659548123855 1
ion O   0.833333325583333   0.166666658966667   0.614324423076145 1
ion O   0.916666658916667   0.083333325633333   0.385659548123855 1
ion O   0.083333325583333   0.416666658966667   0.614324423076145 1
ion O   0.166666658916667   0.333333325633333   0.385659548123855 1
ion O   0.333333325583333   0.416666658966667   0.614324423076145 1
ion O   0.416666658916667   0.333333325633333   0.385659548123855 1
ion O   0.583333325583333   0.416666658966667   0.614324423076145 1
ion O   0.666666658916667   0.333333325633333   0.385659548123855 1
ion O   0.833333325583333   0.416666658966667   0.614324423076145 1
ion O   0.916666658916667   0.333333325633333   0.385659548123855 1
ion O   0.083333325583333   0.666666658966667   0.614324423076145 1
ion O   0.166666658916667   0.583333325633333   0.385659548123855 1
ion O   0.333333325583333   0.666666658966667   0.614324423076145 1
ion O   0.416666658916667   0.583333325633333   0.385659548123855 1
ion O   0.583333325583333   0.666666658966667   0.614324423076145 1
ion O   0.666666658916667   0.583333325633333   0.385659548123855 1
ion O   0.833333325583333   0.666666658966667   0.614324423076145 1
ion O   0.916666658916667   0.583333325633333   0.385659548123855 1
ion O   0.083333325583333   0.916666658966667   0.614324423076145 1
ion O   0.166666658916667   0.833333325633333   0.385659548123855 1
ion O   0.333333325583333   0.916666658966667   0.614324423076145 1
ion O   0.416666658916667   0.833333325633333   0.385659548123855 1
ion O   0.583333325583333   0.916666658966667   0.614324423076145 1
ion O   0.666666658916667   0.833333325633333   0.385659548123855 1
ion O   0.833333325583333   0.916666658966667   0.614324423076145 1
ion O   0.916666658916667   0.833333325633333   0.385659548123855 1


# Forces in Lattice coordinates:
force V  -0.000000000000000   0.000000000000000  -0.572884456117170 1
force V  -0.000000000000000   0.000000000000000   0.572884456116488 1
force V   0.000000000000000  -0.000000000000000  -0.572884456116261 1
force V   0.000000000000000  -0.000000000000000   0.572884456117170 1
force V   0.000000000000000   0.000000000000000  -0.572884456116488 1
force V  -0.000000000000000   0.000000000000000   0.572884456116943 1
force V   0.000000000000000  -0.000000000000000  -0.572884456116488 1
force V  -0.000000000000000   0.000000000000000   0.572884456115578 1
force V   0.000000000000000  -0.000000000000000  -0.572884456117625 1
force V   0.000000000000000   0.000000000000000   0.572884456116033 1
force V   0.000000000000000  -0.000000000000000  -0.572884456116033 1
force V  -0.000000000000000   0.000000000000000   0.572884456116943 1
force V   0.000000000000000   0.000000000000000  -0.572884456117170 1
force V  -0.000000000000000   0.000000000000000   0.572884456116943 1
force V   0.000000000000000  -0.000000000000000  -0.572884456117170 1
force V  -0.000000000000000   0.000000000000000   0.572884456115578 1
force V   0.000000000000000   0.000000000000000  -0.572884456117852 1
force V  -0.000000000000000   0.000000000000000   0.572884456116715 1
force V   0.000000000000000  -0.000000000000000  -0.572884456116943 1
force V   0.000000000000000   0.000000000000000   0.572884456117397 1
force V   0.000000000000000   0.000000000000000  -0.572884456116715 1
force V   0.000000000000000   0.000000000000000   0.572884456116715 1
force V   0.000000000000000   0.000000000000000  -0.572884456117397 1
force V   0.000000000000000   0.000000000000000   0.572884456115806 1
force V   0.000000000000000   0.000000000000000  -0.572884456117625 1
force V   0.000000000000000  -0.000000000000000   0.572884456116260 1
force V   0.000000000000000  -0.000000000000000  -0.572884456116033 1
force V   0.000000000000000  -0.000000000000000   0.572884456117397 1
force V   0.000000000000000   0.000000000000000  -0.572884456116260 1
force V  -0.000000000000000   0.000000000000000   0.572884456116033 1
force V   0.000000000000000  -0.000000000000000  -0.572884456116488 1
force V  -0.000000000000000   0.000000000000000   0.572884456115124 1
force C  -0.000000000000000  -0.000000000000000  -0.000000000000000 1
force C   0.000000000000000  -0.000000000000000  -0.000000000000000 1
force C  -0.000000000000000  -0.000000000000000   0.000000000000000 1
force C   0.000000000000000  -0.000000000000000  -0.000000000000000 1
force C   0.000000000000000  -0.000000000000000   0.000000000000000 1
force C   0.000000000000000   0.000000000000000  -0.000000000000000 1
force C   0.000000000000000   0.000000000000000   0.000000000000000 1
force C  -0.000000000000000   0.000000000000000   0.000000000000000 1
force C   0.000000000000000  -0.000000000000000   0.000000000000000 1
force C   0.000000000000000   0.000000000000000   0.000000000000000 1
force C  -0.000000000000000   0.000000000000000  -0.000000000000000 1
force C  -0.000000000000000   0.000000000000000  -0.000000000000000 1
force C   0.000000000000000  -0.000000000000000  -0.000000000000000 1
force C   0.000000000000000  -0.000000000000000   0.000000000000000 1
force C  -0.000000000000000   0.000000000000000  -0.000000000000000 1
force C   0.000000000000000   0.000000000000000  -0.000000000000000 1
force O  -0.000000000000000  -0.000000000000000   0.437408374843976 1
force O  -0.000000000000000  -0.000000000000000  -0.437408374843528 1
force O  -0.000000000000000  -0.000000000000000   0.437408374843983 1
force O  -0.000000000000000   0.000000000000000  -0.437408374843756 1
force O   0.000000000000000  -0.000000000000000   0.437408374843756 1
force O  -0.000000000000000   0.000000000000000  -0.437408374843756 1
force O   0.000000000000000  -0.000000000000000   0.437408374843979 1
force O  -0.000000000000000   0.000000000000000  -0.437408374843528 1
force O   0.000000000000000  -0.000000000000000   0.437408374844207 1
force O   0.000000000000000   0.000000000000000  -0.437408374843073 1
force O   0.000000000000000  -0.000000000000000   0.437408374844210 1
force O  -0.000000000000000   0.000000000000000  -0.437408374843073 1
force O   0.000000000000000  -0.000000000000000   0.437408374843983 1
force O  -0.000000000000000   0.000000000000000  -0.437408374843301 1
force O   0.000000000000000  -0.000000000000000   0.437408374843976 1
force O  -0.000000000000000   0.000000000000000  -0.437408374843752 1
force O   0.000000000000000  -0.000000000000000   0.437408374843979 1
force O   0.000000000000000   0.000000000000000  -0.437408374843983 1
force O   0.000000000000000  -0.000000000000000   0.437408374844434 1
force O  -0.000000000000000   0.000000000000000  -0.437408374843528 1
force O   0.000000000000000  -0.000000000000000   0.437408374843979 1
force O  -0.000000000000000  -0.000000000000000  -0.437408374843756 1
force O   0.000000000000000  -0.000000000000000   0.437408374843976 1
force O  -0.000000000000000   0.000000000000000  -0.437408374843756 1
force O   0.000000000000000  -0.000000000000000   0.437408374844203 1
force O  -0.000000000000000   0.000000000000000  -0.437408374843756 1
force O   0.000000000000000  -0.000000000000000   0.437408374843749 1
force O  -0.000000000000000   0.000000000000000  -0.437408374843756 1
force O   0.000000000000000  -0.000000000000000   0.437408374843752 1
force O  -0.000000000000000   0.000000000000000  -0.437408374843528 1
force O   0.000000000000000  -0.000000000000000   0.437408374843976 1
force O  -0.000000000000000   0.000000000000000  -0.437408374843759 1

# Energy components:
   A_diel =       -0.9034992904557061
   Eewald =    29534.1953737461735727
       EH =    32207.8467473541677464
     Eloc =   -65221.0433650253035012
      Enl =      130.5463240494083550
      Exc =     -460.7570800039259211
 Exc_core =       28.5833088668861990
       KE =      877.7254685498299978
  MuShift =       -0.0753379716906737
-------------------------------------
     Etot =    -2903.8820597249105049
       TS =        0.1191485119563727
-------------------------------------
        F =    -2904.0012082368666597
      muN =     -115.6618517214812272
-------------------------------------
        G =    -2788.3393565153855889

IonicMinimize: Iter:   0  G: -2788.339356515385589  |grad|_K:  7.154e-03  t[s]:   2489.11

#--- Lowdin population analysis ---
# oxidation-state V +1.035 +1.035 +1.035 +1.035 +1.035 +1.035 +1.035 +1.035 +1.035 +1.035 +1.035 +1.035 +1.035 +1.035 +1.035 +1.035 +1.035 +1.035 +1.035 +1.035 +1.035 +1.035 +1.035 +1.035 +1.035 +1.035 +1.035 +1.035 +1.035 +1.035 +1.035 +1.035
# oxidation-state C -0.828 -0.828 -0.828 -0.828 -0.828 -0.828 -0.828 -0.828 -0.828 -0.828 -0.828 -0.828 -0.828 -0.828 -0.828 -0.828
# oxidation-state O -0.655 -0.655 -0.655 -0.655 -0.655 -0.655 -0.655 -0.655 -0.655 -0.655 -0.655 -0.655 -0.655 -0.655 -0.655 -0.655 -0.655 -0.655 -0.655 -0.655 -0.655 -0.655 -0.655 -0.655 -0.655 -0.655 -0.655 -0.655 -0.655 -0.655 -0.655 -0.655

Shifting auxilliary hamiltonian by -0.000050 to set nElectrons=675.390575
	Linear fluid (dielectric constant: 78.4, screening length: 5.74355 Bohr) occupying 0.786278 of unit cell:	Completed after 16 iterations at t[s]:   2500.24

-------- Electronic minimization -----------
	Linear fluid (dielectric constant: 78.4, screening length: 5.74355 Bohr) occupying 0.786278 of unit cell:	Completed after 0 iterations at t[s]:   2509.35
	FillingsUpdate:  mu: -0.171251800  nElectrons: 675.390575
ElecMinimize: Iter:   0  G: -2788.343292643655786  |grad|_K:  8.355e-06  alpha:  1.000e+00
	Linear fluid (dielectric constant: 78.4, screening length: 5.74355 Bohr) occupying 0.791357 of unit cell:	Completed after 23 iterations at t[s]:   2531.44
	Linear fluid (dielectric constant: 78.4, screening length: 5.74355 Bohr) occupying 0.787536 of unit cell:	Completed after 23 iterations at t[s]:   2548.60
	FillingsUpdate:  mu: -0.171251800  nElectrons: 675.562538
	SubspaceRotationAdjust: set factor to 0.0558
ElecMinimize: Iter:   1  G: -2788.344820386059382  |grad|_K:  3.591e-06  alpha:  2.096e-01  linmin: -3.551e-03  t[s]:   2562.06
	Linear fluid (dielectric constant: 78.4, screening length: 5.74355 Bohr) occupying 0.787513 of unit cell:	Completed after 5 iterations at t[s]:   2569.44
ElecMinimize: 	Predicted alpha/alphaT>3.000000, increasing alphaT to 6.288824e-01.
	Linear fluid (dielectric constant: 78.4, screening length: 5.74355 Bohr) occupying 0.787465 of unit cell:	Completed after 10 iterations at t[s]:   2580.90
	Linear fluid (dielectric constant: 78.4, screening length: 5.74355 Bohr) occupying 0.787465 of unit cell:	Completed after 0 iterations at t[s]:   2591.44
	FillingsUpdate:  mu: -0.171251800  nElectrons: 675.555496
	SubspaceRotationAdjust: set factor to 0.0795
ElecMinimize: Iter:   2  G: -2788.345663014543334  |grad|_K:  2.713e-06  alpha:  6.314e-01  linmin: -4.238e-05  t[s]:   2602.65
	Linear fluid (dielectric constant: 78.4, screening length: 5.74355 Bohr) occupying 0.787152 of unit cell:	Completed after 14 iterations at t[s]:   2611.90
	Linear fluid (dielectric constant: 78.4, screening length: 5.74355 Bohr) occupying 0.787098 of unit cell:	Completed after 9 iterations at t[s]:   2624.31
	FillingsUpdate:  mu: -0.171251800  nElectrons: 675.507121
	SubspaceRotationAdjust: set factor to 0.0931
ElecMinimize: Iter:   3  G: -2788.346203123430314  |grad|_K:  3.138e-06  alpha:  7.411e-01  linmin: -5.667e-05  t[s]:   2636.32
	Linear fluid (dielectric constant: 78.4, screening length: 5.74355 Bohr) occupying 0.787333 of unit cell:	Completed after 13 iterations at t[s]:   2645.21
	Linear fluid (dielectric constant: 78.4, screening length: 5.74355 Bohr) occupying 0.787482 of unit cell:	Completed after 13 iterations at t[s]:   2658.24
	FillingsUpdate:  mu: -0.171251800  nElectrons: 675.564514
	SubspaceRotationAdjust: set factor to 0.0949
ElecMinimize: Iter:   4  G: -2788.347378137961641  |grad|_K:  4.329e-06  alpha:  1.208e+00  linmin:  5.215e-05  t[s]:   2670.84
	Linear fluid (dielectric constant: 78.4, screening length: 5.74355 Bohr) occupying 0.786290 of unit cell:	Completed after 18 iterations at t[s]:   2680.12
	Linear fluid (dielectric constant: 78.4, screening length: 5.74355 Bohr) occupying 0.787016 of unit cell:	Completed after 15 iterations at t[s]:   2694.69
	FillingsUpdate:  mu: -0.171251800  nElectrons: 675.499786
	SubspaceRotationAdjust: set factor to 0.0805
ElecMinimize: Iter:   5  G: -2788.348200864037608  |grad|_K:  4.287e-06  alpha:  4.602e-01  linmin:  1.251e-04  t[s]:   2707.39
	Linear fluid (dielectric constant: 78.4, screening length: 5.74355 Bohr) occupying 0.787654 of unit cell:	Completed after 15 iterations at t[s]:   2716.65
	Linear fluid (dielectric constant: 78.4, screening length: 5.74355 Bohr) occupying 0.787687 of unit cell:	Completed after 6 iterations at t[s]:   2729.02
	FillingsUpdate:  mu: -0.171251800  nElectrons: 675.592967
	SubspaceRotationAdjust: set factor to 0.0618
ElecMinimize: Iter:   6  G: -2788.349063065688370  |grad|_K:  2.939e-06  alpha:  4.841e-01  linmin:  4.043e-05  t[s]:   2740.82
	Linear fluid (dielectric constant: 78.4, screening length: 5.74355 Bohr) occupying 0.787525 of unit cell:	Completed after 15 iterations at t[s]:   2750.40
	Linear fluid (dielectric constant: 78.4, screening length: 5.74355 Bohr) occupying 0.787535 of unit cell:	Completed after 2 iterations at t[s]:   2761.83
	FillingsUpdate:  mu: -0.171251800  nElectrons: 675.569820
	SubspaceRotationAdjust: set factor to 0.0585
ElecMinimize: Iter:   7  G: -2788.349450636563688  |grad|_K:  1.909e-06  alpha:  4.563e-01  linmin:  2.516e-05  t[s]:   2772.89
	Linear fluid (dielectric constant: 78.4, screening length: 5.74355 Bohr) occupying 0.787542 of unit cell:	Completed after 2 iterations at t[s]:   2780.15
	Linear fluid (dielectric constant: 78.4, screening length: 5.74355 Bohr) occupying 0.787542 of unit cell:	Completed after 0 iterations at t[s]:   2789.48
	FillingsUpdate:  mu: -0.171251800  nElectrons: 675.570069
	SubspaceRotationAdjust: set factor to 0.0633
ElecMinimize: Iter:   8  G: -2788.349624494394448  |grad|_K:  1.207e-06  alpha:  4.842e-01  linmin: -4.641e-05  t[s]:   2800.39
	Linear fluid (dielectric constant: 78.4, screening length: 5.74355 Bohr) occupying 0.787656 of unit cell:	Completed after 12 iterations at t[s]:   2809.11
	Linear fluid (dielectric constant: 78.4, screening length: 5.74355 Bohr) occupying 0.787647 of unit cell:	Completed after 0 iterations at t[s]:   2819.66
	FillingsUpdate:  mu: -0.171251800  nElectrons: 675.584934
	SubspaceRotationAdjust: set factor to 0.0605
ElecMinimize: Iter:   9  G: -2788.349689176227457  |grad|_K:  7.817e-07  alpha:  4.475e-01  linmin:  2.099e-04  t[s]:   2830.50
	Linear fluid (dielectric constant: 78.4, screening length: 5.74355 Bohr) occupying 0.787596 of unit cell:	Completed after 11 iterations at t[s]:   2839.30
	Linear fluid (dielectric constant: 78.4, screening length: 5.74355 Bohr) occupying 0.787600 of unit cell:	Completed after 0 iterations at t[s]:   2849.38
	FillingsUpdate:  mu: -0.171251800  nElectrons: 675.578062
	SubspaceRotationAdjust: set factor to 0.0651
ElecMinimize: Iter:  10  G: -2788.349713921241346  |grad|_K:  4.839e-07  alpha:  4.155e-01  linmin: -4.578e-05  t[s]:   2860.19
	Linear fluid (dielectric constant: 78.4, screening length: 5.74355 Bohr) occupying 0.787611 of unit cell:	Completed after 3 iterations at t[s]:   2867.55
	Linear fluid (dielectric constant: 78.4, screening length: 5.74355 Bohr) occupying 0.787616 of unit cell:	Completed after 3 iterations at t[s]:   2877.47
	FillingsUpdate:  mu: -0.171251800  nElectrons: 675.580265
	SubspaceRotationAdjust: set factor to 0.081
ElecMinimize: Iter:  11  G: -2788.349727462705687  |grad|_K:  3.538e-07  alpha:  5.825e-01  linmin: -7.368e-05  t[s]:   2888.95
	Linear fluid (dielectric constant: 78.4, screening length: 5.74355 Bohr) occupying 0.787594 of unit cell:	Completed after 2 iterations at t[s]:   2896.06
	Linear fluid (dielectric constant: 78.4, screening length: 5.74355 Bohr) occupying 0.787594 of unit cell:	Completed after 0 iterations at t[s]:   2905.06
	FillingsUpdate:  mu: -0.171251800  nElectrons: 675.576894
	SubspaceRotationAdjust: set factor to 0.101
[...]
	Linear fluid (dielectric constant: 78.4, screening length: 5.74355 Bohr) occupying 0.788630 of unit cell:	Completed after 0 iterations at t[s]:   7875.30
ElecMinimize: 	Predicted alpha/alphaT>3.000000, increasing alphaT to 1.748722e-01.
	Linear fluid (dielectric constant: 78.4, screening length: 5.74355 Bohr) occupying 0.788629 of unit cell:	Completed after 0 iterations at t[s]:   7883.87
ElecMinimize: 	Predicted alpha/alphaT>3.000000, increasing alphaT to 5.246166e-01.
	Linear fluid (dielectric constant: 78.4, screening length: 5.74355 Bohr) occupying 0.788624 of unit cell:	Completed after 2 iterations at t[s]:   7892.69
	Linear fluid (dielectric constant: 78.4, screening length: 5.74355 Bohr) occupying 0.788627 of unit cell:	Completed after 0 iterations at t[s]:   7902.31
	FillingsUpdate:  mu: -0.171251800  nElectrons: 675.894890
	SubspaceRotationAdjust: set factor to 0.0268
	SubspaceRotationAdjust: resetting CG because factor has changed by 0.128089
	Linear fluid (dielectric constant: 78.4, screening length: 5.74355 Bohr) occupying 0.788627 of unit cell:	Completed after 0 iterations at t[s]:   7916.92
ElecMinimize: 	State modified externally: resetting search direction.
ElecMinimize: Iter:  27  G: -2788.359254991726175  |grad|_K:  1.319e-08  alpha:  2.620e-01
	Linear fluid (dielectric constant: 78.4, screening length: 5.74355 Bohr) occupying 0.788628 of unit cell:	Completed after 0 iterations at t[s]:   7934.05
	Linear fluid (dielectric constant: 78.4, screening length: 5.74355 Bohr) occupying 0.788629 of unit cell:	Completed after 0 iterations at t[s]:   7942.65
	FillingsUpdate:  mu: -0.171251800  nElectrons: 675.895141
	SubspaceRotationAdjust: set factor to 0.0107
ElecMinimize: Iter:  28  G: -2788.359255003972066  |grad|_K:  1.083e-08  alpha:  7.209e-01  linmin:  1.405e-05  t[s]:   7953.16
	Linear fluid (dielectric constant: 78.4, screening length: 5.74355 Bohr) occupying 0.788631 of unit cell:	Completed after 0 iterations at t[s]:   7959.72
	Linear fluid (dielectric constant: 78.4, screening length: 5.74355 Bohr) occupying 0.788631 of unit cell:	Completed after 0 iterations at t[s]:   7968.46
	FillingsUpdate:  mu: -0.171251800  nElectrons: 675.895440
	SubspaceRotationAdjust: set factor to 0.016
ElecMinimize: Iter:  29  G: -2788.359255010239849  |grad|_K:  7.300e-09  alpha:  5.435e-01  linmin: -1.060e-06  t[s]:   7979.37
	Linear fluid (dielectric constant: 78.4, screening length: 5.74355 Bohr) occupying 0.788632 of unit cell:	Completed after 0 iterations at t[s]:   7985.98
	Linear fluid (dielectric constant: 78.4, screening length: 5.74355 Bohr) occupying 0.788632 of unit cell:	Completed after 1 iterations at t[s]:   7995.03
ElecMinimize: 	Step increased G by 3.128525e-08, reducing alpha to 7.920910e-02.
	Linear fluid (dielectric constant: 78.4, screening length: 5.74355 Bohr) occupying 0.788631 of unit cell:	Completed after 0 iterations at t[s]:   8011.44
ElecMinimize: 	Step increased G by 2.553679e-08, reducing alpha to 7.920910e-03.
	Linear fluid (dielectric constant: 78.4, screening length: 5.74355 Bohr) occupying 0.788631 of unit cell:	Completed after 0 iterations at t[s]:   8027.81
ElecMinimize: 	Step increased G by 2.526986e-08, reducing alpha to 7.920910e-04.
ElecMinimize: 	Step failed to reduce G after 3 attempts. Quitting step.
ElecMinimize: 	Undoing step.
	Linear fluid (dielectric constant: 78.4, screening length: 5.74355 Bohr) occupying 0.788631 of unit cell:	Completed after 0 iterations at t[s]:   8043.55
ElecMinimize: 	Step failed: resetting search direction.
	FillingsUpdate:  mu: -0.171251800  nElectrons: 675.895442
	SubspaceRotationAdjust: set factor to 0.015
ElecMinimize: Iter:  30  G: -2788.359254984948620  |grad|_K:  1.203e-08  alpha:  7.921e-04
	Linear fluid (dielectric constant: 78.4, screening length: 5.74355 Bohr) occupying 0.788629 of unit cell:	Completed after 0 iterations at t[s]:   8061.13
	Linear fluid (dielectric constant: 78.4, screening length: 5.74355 Bohr) occupying 0.788629 of unit cell:	Completed after 0 iterations at t[s]:   8069.69
	FillingsUpdate:  mu: -0.171251800  nElectrons: 675.895212
	SubspaceRotationAdjust: set factor to 0.0191
ElecMinimize: Iter:  31  G: -2788.359254995051288  |grad|_K:  1.175e-08  alpha:  7.060e-01  linmin:  1.080e-06  t[s]:   8080.38
	Linear fluid (dielectric constant: 78.4, screening length: 5.74355 Bohr) occupying 0.788626 of unit cell:	Completed after 0 iterations at t[s]:   8086.89
	Linear fluid (dielectric constant: 78.4, screening length: 5.74355 Bohr) occupying 0.788628 of unit cell:	Completed after 0 iterations at t[s]:   8095.79
ElecMinimize: 	Step increased G by 2.164143e-09, reducing alpha to 2.998890e-02.
	Linear fluid (dielectric constant: 78.4, screening length: 5.74355 Bohr) occupying 0.788629 of unit cell:	Completed after 0 iterations at t[s]:   8111.69
ElecMinimize: 	Step increased G by 5.930360e-09, reducing alpha to 2.998890e-03.
	Linear fluid (dielectric constant: 78.4, screening length: 5.74355 Bohr) occupying 0.788629 of unit cell:	Completed after 0 iterations at t[s]:   8127.63
ElecMinimize: 	Step increased G by 6.518803e-09, reducing alpha to 2.998890e-04.
ElecMinimize: 	Step failed to reduce G after 3 attempts. Quitting step.
ElecMinimize: 	Undoing step.
	Linear fluid (dielectric constant: 78.4, screening length: 5.74355 Bohr) occupying 0.788629 of unit cell:	Completed after 0 iterations at t[s]:   8143.29
ElecMinimize: 	Step failed: resetting search direction.
	FillingsUpdate:  mu: -0.171251800  nElectrons: 675.895211
	SubspaceRotationAdjust: set factor to 0.0229
ElecMinimize: Iter:  32  G: -2788.359254988535213  |grad|_K:  1.129e-08  alpha:  2.999e-04
	Linear fluid (dielectric constant: 78.4, screening length: 5.74355 Bohr) occupying 0.788628 of unit cell:	Completed after 0 iterations at t[s]:   8160.43
	Linear fluid (dielectric constant: 78.4, screening length: 5.74355 Bohr) occupying 0.788629 of unit cell:	Completed after 0 iterations at t[s]:   8168.99
	FillingsUpdate:  mu: -0.171251800  nElectrons: 675.895133
	SubspaceRotationAdjust: set factor to 0.0192
ElecMinimize: Iter:  33  G: -2788.359254992091792  |grad|_K:  6.652e-09  alpha:  2.845e-01  linmin: -3.785e-06  t[s]:   8179.55
	Linear fluid (dielectric constant: 78.4, screening length: 5.74355 Bohr) occupying 0.788628 of unit cell:	Completed after 0 iterations at t[s]:   8186.13
ElecMinimize: 	Predicted alpha/alphaT>3.000000, increasing alphaT to 8.536008e-01.
	Linear fluid (dielectric constant: 78.4, screening length: 5.74355 Bohr) occupying 0.788627 of unit cell:	Completed after 0 iterations at t[s]:   8194.88
	Linear fluid (dielectric constant: 78.4, screening length: 5.74355 Bohr) occupying 0.788625 of unit cell:	Completed after 0 iterations at t[s]:   8203.26
	FillingsUpdate:  mu: -0.171251800  nElectrons: 675.894595
	SubspaceRotationAdjust: set factor to 0.0226
ElecMinimize: Iter:  34  G: -2788.359254997727021  |grad|_K:  1.166e-08  alpha:  1.298e+00  linmin:  1.342e-06  t[s]:   8213.91
ElecMinimize: Converged (|Delta G|<1.000000e-08 for 2 iters).
Setting wave functions to eigenvectors of Hamiltonian

# Ionic positions in lattice coordinates:
ion V   0.166666658916667   0.083333325633333   0.560451026721008 1
ion V   0.083333325583333   0.166666658966667   0.439532944478992 1
ion V   0.416666658916667   0.083333325633333   0.560451026721008 1
ion V   0.333333325583333   0.166666658966667   0.439532944478992 1
ion V   0.666666658916667   0.083333325633333   0.560451026721008 1
ion V   0.583333325583333   0.166666658966667   0.439532944478992 1
ion V   0.916666658916667   0.083333325633333   0.560451026721008 1
ion V   0.833333325583333   0.166666658966667   0.439532944478992 1
ion V   0.166666658916667   0.333333325633333   0.560451026721008 1
ion V   0.083333325583333   0.416666658966667   0.439532944478992 1
ion V   0.416666658916667   0.333333325633333   0.560451026721008 1
ion V   0.333333325583333   0.416666658966667   0.439532944478992 1
ion V   0.666666658916667   0.333333325633333   0.560451026721008 1
ion V   0.583333325583333   0.416666658966667   0.439532944478992 1
ion V   0.916666658916667   0.333333325633333   0.560451026721008 1
ion V   0.833333325583333   0.416666658966667   0.439532944478992 1
ion V   0.166666658916667   0.583333325633333   0.560451026721008 1
ion V   0.083333325583333   0.666666658966667   0.439532944478992 1
ion V   0.416666658916667   0.583333325633333   0.560451026721008 1
ion V   0.333333325583333   0.666666658966667   0.439532944478992 1
ion V   0.666666658916667   0.583333325633333   0.560451026721008 1
ion V   0.583333325583333   0.666666658966667   0.439532944478992 1
ion V   0.916666658916667   0.583333325633333   0.560451026721008 1
ion V   0.833333325583333   0.666666658966667   0.439532944478992 1
ion V   0.166666658916667   0.833333325633333   0.560451026721008 1
ion V   0.083333325583333   0.916666658966667   0.439532944478992 1
ion V   0.416666658916667   0.833333325633333   0.560451026721008 1
ion V   0.333333325583333   0.916666658966667   0.439532944478992 1
ion V   0.666666658916667   0.833333325633333   0.560451026721008 1
ion V   0.583333325583333   0.916666658966667   0.439532944478992 1
ion V   0.916666658916667   0.833333325633333   0.560451026721008 1
ion V   0.833333325583333   0.916666658966667   0.439532944478992 1
ion C  -0.000000007750000  -0.000000007700000   0.499991985600000 1
ion C   0.249999992250000  -0.000000007700000   0.499991985600000 1
ion C   0.499999992250000  -0.000000007700000   0.499991985600000 1
ion C   0.749999992250000  -0.000000007700000   0.499991985600000 1
ion C  -0.000000007750000   0.249999992300000   0.499991985600000 1
ion C   0.249999992250000   0.249999992300000   0.499991985600000 1
ion C   0.499999992250000   0.249999992300000   0.499991985600000 1
ion C   0.749999992250000   0.249999992300000   0.499991985600000 1
ion C  -0.000000007750000   0.499999992300000   0.499991985600000 1
ion C   0.249999992250000   0.499999992300000   0.499991985600000 1
ion C   0.499999992250000   0.499999992300000   0.499991985600000 1
ion C   0.749999992250000   0.499999992300000   0.499991985600000 1
ion C  -0.000000007750000   0.749999992300000   0.499991985600000 1
ion C   0.249999992250000   0.749999992300000   0.499991985600000 1
ion C   0.499999992250000   0.749999992300000   0.499991985600000 1
ion C   0.749999992250000   0.749999992300000   0.499991985600000 1
ion O   0.083333325583333   0.166666658966667   0.615573787221812 1
ion O   0.166666658916667   0.083333325633333   0.384410183978188 1
ion O   0.333333325583333   0.166666658966667   0.615573787221812 1
ion O   0.416666658916667   0.083333325633333   0.384410183978188 1
ion O   0.583333325583333   0.166666658966667   0.615573787221812 1
ion O   0.666666658916667   0.083333325633333   0.384410183978188 1
ion O   0.833333325583333   0.166666658966667   0.615573787221812 1
ion O   0.916666658916667   0.083333325633333   0.384410183978188 1
ion O   0.083333325583333   0.416666658966667   0.615573787221812 1
ion O   0.166666658916667   0.333333325633333   0.384410183978188 1
ion O   0.333333325583333   0.416666658966667   0.615573787221812 1
ion O   0.416666658916667   0.333333325633333   0.384410183978188 1
ion O   0.583333325583333   0.416666658966667   0.615573787221812 1
ion O   0.666666658916667   0.333333325633333   0.384410183978188 1
ion O   0.833333325583333   0.416666658966667   0.615573787221812 1
ion O   0.916666658916667   0.333333325633333   0.384410183978188 1
ion O   0.083333325583333   0.666666658966667   0.615573787221812 1
ion O   0.166666658916667   0.583333325633333   0.384410183978188 1
ion O   0.333333325583333   0.666666658966667   0.615573787221812 1
ion O   0.416666658916667   0.583333325633333   0.384410183978188 1
ion O   0.583333325583333   0.666666658966667   0.615573787221812 1
ion O   0.666666658916667   0.583333325633333   0.384410183978188 1
ion O   0.833333325583333   0.666666658966667   0.615573787221812 1
ion O   0.916666658916667   0.583333325633333   0.384410183978188 1
ion O   0.083333325583333   0.916666658966667   0.615573787221812 1
ion O   0.166666658916667   0.833333325633333   0.384410183978188 1
ion O   0.333333325583333   0.916666658966667   0.615573787221812 1
ion O   0.416666658916667   0.833333325633333   0.384410183978188 1
ion O   0.583333325583333   0.916666658966667   0.615573787221812 1
ion O   0.666666658916667   0.833333325633333   0.384410183978188 1
ion O   0.833333325583333   0.916666658966667   0.615573787221812 1
ion O   0.916666658916667   0.833333325633333   0.384410183978188 1


# Forces in Lattice coordinates:
force V  -0.000000000000000  -0.000000000000000   0.003099621390112 1
force V   0.000000000000000  -0.000000000000000  -0.003099621389429 1
force V  -0.000000000000000  -0.000000000000000   0.003099621389886 1
force V   0.000000000000000  -0.000000000000000  -0.003099621388520 1
force V  -0.000000000000000  -0.000000000000000   0.003099621390339 1
force V  -0.000000000000000  -0.000000000000000  -0.003099621388521 1
force V   0.000000000000000  -0.000000000000000   0.003099621391248 1
force V  -0.000000000000000   0.000000000000000  -0.003099621389203 1
force V  -0.000000000000000  -0.000000000000000   0.003099621391021 1
force V   0.000000000000000  -0.000000000000000  -0.003099621389203 1
force V  -0.000000000000000  -0.000000000000000   0.003099621390112 1
force V   0.000000000000000  -0.000000000000000  -0.003099621388521 1
force V  -0.000000000000000  -0.000000000000000   0.003099621391022 1
force V   0.000000000000000  -0.000000000000000  -0.003099621387839 1
force V   0.000000000000000  -0.000000000000000   0.003099621390566 1
force V   0.000000000000000  -0.000000000000000  -0.003099621389203 1
force V  -0.000000000000000  -0.000000000000000   0.003099621391021 1
force V   0.000000000000000  -0.000000000000000  -0.003099621388747 1
force V   0.000000000000000  -0.000000000000000   0.003099621390567 1
force V  -0.000000000000000  -0.000000000000000  -0.003099621388520 1
force V  -0.000000000000000  -0.000000000000000   0.003099621391022 1
force V   0.000000000000000  -0.000000000000000  -0.003099621388520 1
force V  -0.000000000000000  -0.000000000000000   0.003099621390567 1
force V   0.000000000000000  -0.000000000000000  -0.003099621389203 1
force V   0.000000000000000   0.000000000000000   0.003099621391022 1
force V   0.000000000000000  -0.000000000000000  -0.003099621389203 1
force V  -0.000000000000000   0.000000000000000   0.003099621390566 1
force V   0.000000000000000  -0.000000000000000  -0.003099621388520 1
force V  -0.000000000000000  -0.000000000000000   0.003099621391022 1
force V   0.000000000000000   0.000000000000000  -0.003099621388293 1
force V  -0.000000000000000  -0.000000000000000   0.003099621390567 1
force V   0.000000000000000  -0.000000000000000  -0.003099621388748 1
force C  -0.000000000000000   0.000000000000000  -0.000000000000000 1
force C   0.000000000000000   0.000000000000000  -0.000000000000000 1
force C  -0.000000000000000  -0.000000000000000  -0.000000000000000 1
force C  -0.000000000000000  -0.000000000000000   0.000000000000000 1
force C  -0.000000000000000   0.000000000000000   0.000000000000000 1
force C   0.000000000000000   0.000000000000000   0.000000000000000 1
force C  -0.000000000000000  -0.000000000000000  -0.000000000000000 1
force C   0.000000000000000  -0.000000000000000   0.000000000000000 1
force C  -0.000000000000000  -0.000000000000000   0.000000000000000 1
force C  -0.000000000000000   0.000000000000000   0.000000000000000 1
force C  -0.000000000000000  -0.000000000000000  -0.000000000000000 1
force C  -0.000000000000000  -0.000000000000000  -0.000000000000000 1
force C   0.000000000000000  -0.000000000000000  -0.000000000000000 1
force C   0.000000000000000  -0.000000000000000   0.000000000000000 1
force C  -0.000000000000000  -0.000000000000000  -0.000000000000000 1
force C   0.000000000000000   0.000000000000000  -0.000000000000000 1
force O  -0.000000000000000   0.000000000000000   0.002085099814753 1
force O   0.000000000000000   0.000000000000000  -0.002085099813598 1
force O   0.000000000000000   0.000000000000000   0.002085099814970 1
force O   0.000000000000000   0.000000000000000  -0.002085099813605 1
force O   0.000000000000000  -0.000000000000000   0.002085099814742 1
force O  -0.000000000000000  -0.000000000000000  -0.002085099813598 1
force O  -0.000000000000000   0.000000000000000   0.002085099815204 1
force O  -0.000000000000000   0.000000000000000  -0.002085099813602 1
force O  -0.000000000000000   0.000000000000000   0.002085099815201 1
force O   0.000000000000000   0.000000000000000  -0.002085099813378 1
force O  -0.000000000000000  -0.000000000000000   0.002085099814522 1
force O   0.000000000000000   0.000000000000000  -0.002085099813833 1
force O  -0.000000000000000  -0.000000000000000   0.002085099814522 1
force O  -0.000000000000000  -0.000000000000000  -0.002085099813375 1
force O   0.000000000000000  -0.000000000000000   0.002085099814067 1
force O  -0.000000000000000   0.000000000000000  -0.002085099813829 1
force O  -0.000000000000000   0.000000000000000   0.002085099813605 1
force O   0.000000000000000   0.000000000000000  -0.002085099814284 1
force O  -0.000000000000000   0.000000000000000   0.002085099814288 1
force O   0.000000000000000  -0.000000000000000  -0.002085099813605 1
force O  -0.000000000000000   0.000000000000000   0.002085099813613 1
force O   0.000000000000000  -0.000000000000000  -0.002085099813602 1
force O   0.000000000000000   0.000000000000000   0.002085099814067 1
force O   0.000000000000000   0.000000000000000  -0.002085099813836 1
force O   0.000000000000000   0.000000000000000   0.002085099814067 1
force O   0.000000000000000  -0.000000000000000  -0.002085099813371 1
force O   0.000000000000000  -0.000000000000000   0.002085099812930 1
force O  -0.000000000000000  -0.000000000000000  -0.002085099813833 1
force O  -0.000000000000000   0.000000000000000   0.002085099813613 1
force O  -0.000000000000000  -0.000000000000000  -0.002085099813378 1
force O   0.000000000000000   0.000000000000000   0.002085099813605 1
force O   0.000000000000000  -0.000000000000000  -0.002085099813826 1

# Energy components:
   A_diel =       -1.1370402228160239
   Eewald =    29539.0558868772714050
       EH =    32246.5031627135031158
     Eloc =   -65263.7779249302911921
      Enl =      130.3458354482670529
      Exc =     -460.6560490169301261
 Exc_core =       28.5835347573214698
       KE =      877.1694439510035863
  MuShift =       -0.0865371911831345
-------------------------------------
     Etot =    -2903.9996876138502557
       TS =        0.1077333293687957
-------------------------------------
        F =    -2904.1074209432190401
      muN =     -115.7481659454921328
-------------------------------------
        G =    -2788.3592549977270210

IonicMinimize: Iter:   4  G: -2788.359254997727021  |grad|_K:  3.708e-05  alpha:  1.000e+00  linmin: -9.216e-01  t[s]:   8224.92
IonicMinimize: Converged (|grad|_K<1.000000e-04).

#--- Lowdin population analysis ---
# oxidation-state V +1.027 +1.027 +1.027 +1.027 +1.027 +1.027 +1.027 +1.027 +1.027 +1.027 +1.027 +1.027 +1.027 +1.027 +1.027 +1.027 +1.027 +1.027 +1.027 +1.027 +1.027 +1.027 +1.027 +1.027 +1.027 +1.027 +1.027 +1.027 +1.027 +1.027 +1.027 +1.027
# oxidation-state C -0.822 -0.822 -0.822 -0.822 -0.822 -0.822 -0.822 -0.822 -0.822 -0.822 -0.822 -0.822 -0.822 -0.822 -0.822 -0.822
# oxidation-state O -0.664 -0.664 -0.664 -0.664 -0.664 -0.664 -0.664 -0.664 -0.664 -0.664 -0.664 -0.664 -0.664 -0.664 -0.664 -0.664 -0.664 -0.664 -0.664 -0.664 -0.664 -0.664 -0.664 -0.664 -0.664 -0.664 -0.664 -0.664 -0.664 -0.664 -0.664 -0.664


Dumping 'NbTe2.fillings' ... done
Dumping 'NbTe2.wfns' ... done
Dumping 'NbTe2.fluidState' ... done
Dumping 'NbTe2.ionpos' ... done
Dumping 'NbTe2.eigenvals' ... done
End date and time: Thu Apr 15 22:15:18 2021  (Duration: 0-2:17:08.48)
Done!
