
*************** JDFTx 1.5.0  ***************

Start date and time: Sat Jul 11 08:50:03 2020
Executable jdftx_gpu with command-line: -i Charged.in -o Charged.out
Running on hosts (process indices):  amax (0-2)
Divided in process groups (process indices):  0 (0)  1 (1)  2 (2)
gpuInit: Found compatible cuda device 0 'Tesla K80'
gpuInit: Found compatible cuda device 1 'Tesla K80'
gpuInit: Found compatible cuda device 2 'Tesla K80'
gpuInit: Selected device 0
Resource initialization completed at t[s]:     12.90
Run totals: 3 processes, 24 threads, 3 GPUs


Input parsed successfully to the following command list (including defaults):

basis kpoint-dependent
cache-projectors no
coords-type Lattice
core-overlap-check none
coulomb-interaction Slab 001
coulomb-truncation-embed 0 0 0.5
davidson-band-ratio 1.1
dump End State
dump-name NbTe2.$VAR
elec-cutoff 20 100
elec-eigen-algo Davidson
elec-ex-corr gga-PBE
elec-smearing Gauss 0.0073499
electronic-minimize  \
	dirUpdateScheme      FletcherReeves \
	linminMethod         DirUpdateRecommended \
	nIterations          400 \
	history              15 \
	knormThreshold       0 \
	energyDiffThreshold  1e-08 \
	nEnergyDiff          2 \
	alphaTstart          1 \
	alphaTmin            1e-10 \
	updateTestStepSize   yes \
	alphaTreduceFactor   0.1 \
	alphaTincreaseFactor 3 \
	nAlphaAdjustMax      3 \
	wolfeEnergy          0.0001 \
	wolfeGradient        0.9 \
	fdTest               no
exchange-regularization WignerSeitzTruncated
fluid LinearPCM 298.000000 1.013250
fluid-anion F- 1 MeanFieldLJ \
	epsBulk 1 \
	pMol 0 \
	epsInf 1 \
	Pvap 0 \
	sigmaBulk 0 \
	Rvdw 2.24877 \
	Res 0 \
	tauNuc 343133
fluid-cation Na+ 1 MeanFieldLJ \
	epsBulk 1 \
	pMol 0 \
	epsInf 1 \
	Pvap 0 \
	sigmaBulk 0 \
	Rvdw 2.19208 \
	Res 0 \
	tauNuc 343133
fluid-ex-corr lda-TF lda-PZ
fluid-gummel-loop 10 1.000000e-05
fluid-minimize  \
	dirUpdateScheme      PolakRibiere \
	linminMethod         DirUpdateRecommended \
	nIterations          400 \
	history              15 \
	knormThreshold       1e-11 \
	energyDiffThreshold  0 \
	nEnergyDiff          2 \
	alphaTstart          1 \
	alphaTmin            1e-10 \
	updateTestStepSize   yes \
	alphaTreduceFactor   0.1 \
	alphaTincreaseFactor 3 \
	nAlphaAdjustMax      6 \
	wolfeEnergy          0.0001 \
	wolfeGradient        0.9 \
	fdTest               no
fluid-solvent H2O 55.338 ScalarEOS \
	epsBulk 78.4 \
	pMol 0.92466 \
	epsInf 1.77 \
	Pvap 1.06736e-10 \
	sigmaBulk 4.62e-05 \
	Rvdw 2.61727 \
	Res 1.42 \
	tauNuc 343133 \
	poleEl 15 7 1
forces-output-coords Positions
initial-state NbTe2.$VAR
ion Ni   0.082332499968437   0.082332492968440   0.537577342960231 0
ion Ni  -0.000858591618158  -0.000858591618158   0.465599058143562 0
ion Ni   0.335325006063117   0.082332492968440   0.537577342960231 0
ion Ni   0.248600395239317   0.002799209521366   0.464406785341277 0
ion Ni   0.581502861560250   0.088156287815939   0.538139928735602 0
ion Ni   0.501717183236316  -0.000858591618158   0.465599058143562 0
ion Ni   0.830330817623809   0.088156287815939   0.538139928735602 0
ion Ni   0.749942733866315   0.000114468267364   0.465182599243594 0
ion Ni   0.082332479968442   0.335325000063123   0.537577342960231 0
ion Ni   0.002799211521367   0.248600369239315   0.464406785341277 0
ion Ni   0.332004613822084   0.332004627822086   0.535831799193832 0
ion Ni   0.248600389239316   0.248600369239315   0.464406785341277 0
ion Ni   0.580577717808171   0.338834398383662   0.530503930256892 0
ion Ni   0.497897221939211   0.252671032655287   0.462050791828587 0
ion Ni   0.835980687355839   0.332004627822086   0.535831799193832 0
ion Ni   0.749431738405498   0.252671032655287   0.462050791828587 0
ion Ni   0.088156277815939   0.581502843560248   0.538139928735602 0
ion Ni  -0.000858588618161   0.501717130236315   0.465599058143562 0
ion Ni   0.338834387383658   0.580577750808170   0.530503930256892 0
ion Ni   0.252671077655287   0.497897143939211   0.462050791828587 0
ion Ni   0.580577751808174   0.580577750808170   0.530503930256892 0
ion Ni   0.499999987000002   0.499999946999999   0.459072333229185 0
ion Ni   0.830330737623809   0.581502843560248   0.538139928735602 0
ion Ni   0.749431700405502   0.497897143939211   0.462050791828587 0
ion Ni   0.088156275815938   0.830330795623814   0.538139928735602 0
ion Ni   0.000114453267367   0.749942741866316   0.465182599243594 0
ion Ni   0.332004614822081   0.835980716355838   0.535831799193832 0
ion Ni   0.252671075655287   0.749431720405497   0.462050791828587 0
ion Ni   0.581502842560252   0.830330795623814   0.538139928735602 0
ion Ni   0.497897118939213   0.749431720405497   0.462050791828587 0
ion Ni   0.833329982999999   0.833329980000002   0.538256269745407 0
ion Ni   0.749942719866321   0.749942741866316   0.465182599243594 0
ion Te   0.082073279771015   0.082073272771018   0.399673698308951 0
ion Te  -0.001224394969014  -0.001224394969014   0.601965625122032 0
ion Te   0.335843446457960   0.082073272771018   0.399673698308951 0
ion Te   0.249453176906974   0.001093646186051   0.602003654089030 0
ion Te   0.583193362299249   0.083920776466938   0.400699565980811 0
ion Te   0.502448789938028  -0.001224394969014   0.601965625122032 0
ion Te   0.832875828233810   0.083920776466938   0.400699565980811 0
ion Te   0.749434523913112   0.001130888173769   0.602023468409915 0
ion Te   0.082073259771020   0.335843440457967   0.399673698308951 0
ion Te   0.001093648186052   0.249453150906972   0.602003654089030 0
ion Te   0.330921948144960   0.330921962144962   0.397841811769758 0
ion Te   0.249453170906974   0.249453150906972   0.602003654089030 0
ion Te   0.583112272665700   0.333765288668604   0.396159495329480 0
ion Te   0.499356135548295   0.258548205455387   0.599861063205005 0
ion Te   0.838146018710087   0.330921962144962   0.397841811769758 0
ion Te   0.742095651996314   0.258548205455387   0.599861063205005 0
ion Te   0.083920766466937   0.583193344299247   0.400699565980811 0
ion Te  -0.001224391969017   0.502448736938027   0.601965625122032 0
ion Te   0.333765277668599   0.583112305665699   0.396159495329480 0
ion Te   0.258548250455388   0.499356057548295   0.599861063205005 0
ion Te   0.583112306665703   0.583112305665699   0.396159495329480 0
ion Te   0.832875748233811   0.583193344299247   0.400699565980811 0
ion Te   0.742095613996318   0.499356057548295   0.599861063205005 0
ion Te   0.083920764466937   0.832875806233816   0.400699565980811 0
ion Te   0.001130873173771   0.749434531913113   0.602023468409915 0
ion Te   0.330921949144957   0.838146047710086   0.397841811769758 0
ion Te   0.258548248455387   0.742095633996312   0.599861063205005 0
ion Te   0.583193343299251   0.832875806233816   0.400699565980811 0
ion Te   0.499356032548297   0.742095633996312   0.599861063205005 0
ion Te   0.833329982999999   0.833329980000002   0.400750728019668 0
ion Te   0.749434509913118   0.749434531913113   0.602023468409915 0
ion-species GBRV/$ID_pbe.uspp
ion-width Ecut
ionic-minimize  \
	dirUpdateScheme      L-BFGS \
	linminMethod         DirUpdateRecommended \
	nIterations          0 \
	history              15 \
	knormThreshold       0.0001 \
	energyDiffThreshold  1e-06 \
	nEnergyDiff          2 \
	alphaTstart          1 \
	alphaTmin            1e-10 \
	updateTestStepSize   yes \
	alphaTreduceFactor   0.1 \
	alphaTincreaseFactor 3 \
	nAlphaAdjustMax      3 \
	wolfeEnergy          0.0001 \
	wolfeGradient        0.9 \
	fdTest               no
kpoint   0.000000000000   0.000000000000   0.000000000000  1.00000000000000
kpoint-folding 3 3 1 
latt-move-scale 1 1 1
latt-scale 1 1 1 
lattice Triclinic 28.5693 28.5693 35.2978 90 90 60.0001
lattice-minimize  \
	dirUpdateScheme      L-BFGS \
	linminMethod         DirUpdateRecommended \
	nIterations          0 \
	history              15 \
	knormThreshold       0 \
	energyDiffThreshold  1e-06 \
	nEnergyDiff          2 \
	alphaTstart          1 \
	alphaTmin            1e-10 \
	updateTestStepSize   yes \
	alphaTreduceFactor   0.1 \
	alphaTincreaseFactor 3 \
	nAlphaAdjustMax      3 \
	wolfeEnergy          0.0001 \
	wolfeGradient        0.9 \
	fdTest               no
lcao-params -1 1e-06 0.0073499
pcm-variant CANDLE
spintype no-spin
subspace-rotation-factor 1 yes
symmetries automatic
symmetry-threshold 0.0001
target-mu -0.171252 no




---------- Setting up symmetries ----------

Found 24 point-group symmetries of the bravais lattice
Found 6 space-group symmetries with basis
Applied RMS atom displacement 8.26063e-05 bohrs to make symmetries exact.

---------- Initializing the Grid ----------
R = 
[    28.5693    14.2846          0  ]
[          0    24.7417          0  ]
[          0          0    35.2978  ]
unit cell volume = 24950.4
G =
[   0.219928  -0.126975          0  ]
[          0   0.253951          0  ]
[          0          0   0.178005  ]
Minimum fftbox size, Smin = [  132  132  160  ]
Chosen fftbox size, S = [  140  140  160  ]

---------- Initializing tighter grid for wavefunction operations ----------
R = 
[    28.5693    14.2846          0  ]
[          0    24.7417          0  ]
[          0          0    35.2978  ]
unit cell volume = 24950.4
G =
[   0.219928  -0.126975          0  ]
[          0   0.253951          0  ]
[          0          0   0.178005  ]
Minimum fftbox size, Smin = [  116  116  144  ]
Chosen fftbox size, S = [  120  120  144  ]

---------- Exchange Correlation functional ----------
Initalized PBE GGA exchange.
Initalized PBE GGA correlation.

---------- Setting up pseudopotentials ----------
Width of ionic core gaussian charges (only for fluid interactions / plotting) set to 0.397384

Reading pseudopotential file '/home/guoxy/vasp/jdftx-1.5.0/build/pseudopotentials/GBRV/ni_pbe.uspp':
  Title: Ni.  Created by USPP 7.3.6 on 1-4-15
  Reference state energy: -170.398381.  18 valence electrons in orbitals:
    |300>  occupation: 2  eigenvalue: -4.804705
    |310>  occupation: 6  eigenvalue: -3.347751
    |320>  occupation: 8  eigenvalue: -1.042415
    |400>  occupation: 0  eigenvalue: -0.795539
    |410>  occupation: 0  eigenvalue: -0.551375
  lMax: 2  lLocal: 3  QijEcut: 6.5
  6 projectors sampled on a log grid with 611 points:
    l: 0  eig: -4.804708  rCut: 1.44
    l: 0  eig: -0.795541  rCut: 1.44
    l: 1  eig: -3.347753  rCut: 1.55
    l: 1  eig: 0.500000  rCut: 1.55
    l: 2  eig: -1.042418  rCut: 1.5
    l: 2  eig: -0.450000  rCut: 1.5
  Partial core density with radius 0.65
  Transforming core density to a uniform radial grid of dG=0.02 with 1702 points.
  Transforming local potential to a uniform radial grid of dG=0.02 with 1702 points.
  Transforming nonlocal projectors to a uniform radial grid of dG=0.02 with 432 points.
  Transforming density augmentations to a uniform radial grid of dG=0.02 with 1702 points.
  Transforming atomic orbitals to a uniform radial grid of dG=0.02 with 432 points.
  Core radius for overlap checks: 1.55 bohrs.

Reading pseudopotential file '/home/guoxy/vasp/jdftx-1.5.0/build/pseudopotentials/GBRV/te_pbe.uspp':
  Title: Te.  Created by USPP 7.3.6 on 14-9-2013
  Reference state energy: -13.134220.  6 valence electrons in orbitals:
    |500>  occupation: 2  eigenvalue: -0.555231
    |510>  occupation: 4  eigenvalue: -0.218781
  lMax: 2  lLocal: 2  QijEcut: 5
  5 projectors sampled on a log grid with 723 points:
    l: 0  eig: -0.555229  rCut: 2.1
    l: 0  eig: 1.000000  rCut: 2.1
    l: 1  eig: -0.218780  rCut: 2.1
    l: 1  eig: 1.000000  rCut: 2.1
    l: 2  eig: 1.000000  rCut: 2.6
  Partial core density with radius 1.8
  Transforming core density to a uniform radial grid of dG=0.02 with 1702 points.
  Transforming local potential to a uniform radial grid of dG=0.02 with 1702 points.
  Transforming nonlocal projectors to a uniform radial grid of dG=0.02 with 432 points.
  Transforming density augmentations to a uniform radial grid of dG=0.02 with 1702 points.
  Transforming atomic orbitals to a uniform radial grid of dG=0.02 with 432 points.
  Core radius for overlap checks: 2.60 bohrs.

Initialized 2 species with 63 total atoms.

Folded 1 k-points by 3x3x1 to 9 k-points.

---------- Setting up k-points, bands, fillings ----------
Adding inversion symmetry to k-mesh for non-inversion-symmetric unit cell.
Reduced to 3 k-points under symmetry. 
Computing the number of bands and number of electrons
Reading initial fillings from file NbTe2.fillings.
nElectrons: 762.000000   nBands: 540   nStates: 3

----- Setting up reduced wavefunction bases (one per k-point) -----
average nbasis = 106596.556 , ideal nbasis = 106589.816

---------- Setting up coulomb interaction ----------
Fluid mode embedding: using embedded box, but periodic Coulomb kernel.
(Fluid response is responsible for (approximate) separation between periodic images.)
Setting up double-sized grid for truncated Coulomb potentials:
R = 
[    28.5693    14.2846          0  ]
[          0    24.7417          0  ]
[          0          0    70.5956  ]
unit cell volume = 49900.7
G =
[   0.219928  -0.126975          0  ]
[          0   0.253951          0  ]
[          0          0  0.0890025  ]
Chosen fftbox size, S = [  140  140  320  ]
Integer grid location selected as the embedding center:
   Grid: [  0  0  80  ]
   Lattice: [  0  0  0.5  ]
   Cartesian: [  0  0  17.6489  ]
Constructing Wigner-Seitz cell: 8 faces (6 quadrilaterals, 2 hexagons)
Range-separation parameter for embedded mesh potentials due to point charges: 0.592549 bohrs.

Initializing van der Waals corrections
	NOTE: vdW corrections apply only for interactions with fluid.
	Ni:  C6:  187.33 Eh-a0^6  R0: 2.952 a0
	Te:  C6:  550.54 Eh-a0^6  R0: 3.575 a0

---------- Setting up ewald sum ----------
Optimum gaussian width for ewald sums = 7.363013 bohr.
Real space sum over 405 unit cells with max indices [  4  4  2  ]
Reciprocal space sum over 7425 terms with max indices [  7  7  16  ]

---------- Allocating electronic variables ----------
Initializing wave functions:  reading from 'NbTe2.wfns'
----- createFluidSolver() ----- (Fluid-side solver setup)
   Initializing fluid molecule 'H2O'
     Initializing site 'O'
       Electron density: proportional to exp(-r/0.36935)*erfc((r-0.51523)/0.36823) with norm 6.826
       Charge density: gaussian nuclear width 0.478731 with net site charge 0.826
       Polarizability: cuspless exponential with width 0.32 and norm 3.73
       Hard sphere radius: 2.57003 bohrs
       Positions in reference frame:
         [ +0.000000 +0.000000 +0.000000 ]
     Initializing site 'H'
       Electron density: proportional to exp(-r/0.34641)*erfc((r-0)/0.390882) with norm 0.587
       Charge density: gaussian nuclear width 0.377945 with net site charge -0.413
       Polarizability: cuspless exponential with width 0.39 and norm 3.3
       Positions in reference frame:
         [ +0.000000 -1.441945 +1.122523 ]
         [ +0.000000 +1.441945 +1.122523 ]
     Net charge: 0   dipole magnitude: 0.927204
     Initializing spherical shell mfKernel with radius 2.61727 Bohr
     deltaS corrections:
       site 'O': -7.54299
       site 'H': -6.83917
   Initializing fluid molecule 'Na+'
     Initializing site 'Na'
       Electron density: proportional to exp(-r/0.19682)*erfc((r-0.71491)/0.41314) with norm 8.1383
       Charge density: gaussian nuclear width 0.365347 with net site charge -1
       Hard sphere radius: 1.86327 bohrs
       Positions in reference frame:
         [ +0.000000 +0.000000 +0.000000 ]
     Net charge: -1   dipole magnitude: 0
     Initializing gaussian mfKernel with width: 1.55004 Bohr
     deltaS corrections:
       site 'Na': -22.3555
   Initializing fluid molecule 'F-'
     Initializing site 'F'
       Electron density: proportional to exp(-r/0.38886)*erfc((r-0)/0.438782) with norm 8
       Charge density: gaussian nuclear width 0.374796 with net site charge 1
       Hard sphere radius: 2.39995 bohrs
       Positions in reference frame:
         [ +0.000000 +0.000000 +0.000000 ]
     Net charge: 1   dipole magnitude: 0
     Initializing gaussian mfKernel with width: 1.59012 Bohr
     deltaS corrections:
       site 'F': -9.04335

Correction to mu due to finite nuclear width = -0.0151512
   Cavity determined by nc: 0.00142 and sigma: 0.707107
   Nonlocal vdW cavity from gaussian model electron density with norm = 8 and sigma = 0.993594 bohr
   Charge asymmetry in cavity with sensitivity pCavity = 36.5 e-bohr/Eh
   Electrostatic cavity expanded by eta = 1.46 bohrs
   Weighted density cavitation model constrained by Nbulk: 0.0049383 bohr^-3, Pvap: 3.14029 kPa, Rvdw: 2.61727 bohr and sigmaBulk: 4.62e-05 Eh/bohr^2 at T: 298 K.
   Weighted density dispersion model using vdW pair potentials with single solvent site with sqrtC6eff: 0.77 SI.
Reading fluid state from 'NbTe2.fluidState'


---- Citations for features of the code used in this run ----

   Software package:
      R. Sundararaman, K. Letchworth-Weaver, K.A. Schwarz, D. Gunceler, Y. Ozhabes and T.A. Arias, 'JDFTx: software for joint density-functional theory', SoftwareX 6, 278 (2017)

   gga-PBE exchange-correlation functional:
      J.P. Perdew, K. Burke and M. Ernzerhof, Phys. Rev. Lett. 77, 3865 (1996)

   Pseudopotentials:
      KF Garrity, JW Bennett, KM Rabe and D Vanderbilt, Comput. Mater. Sci. 81, 446 (2014)

   Truncated Coulomb potentials:
      R. Sundararaman and T.A. Arias, Phys. Rev. B 87, 165122 (2013)

   Van der Waals correction pair-potentials:
      S. Grimme, J. Comput. Chem. 27, 1787 (2006)

   Charge-asymmetric nonlocally-determined local-electric (CANDLE) solvation model:
      R. Sundararaman and W.A. Goddard III, J. Chem. Phys. 142, 064107 (2015)

   Total energy minimization with Auxiliary Hamiltonian:
      C. Freysoldt, S. Boeck, and J. Neugebauer, Phys. Rev. B 79, 241103(R) (2009)

   Grand-canonical (fixed-potential) DFT:
      R. Sundararaman, W. A. Goddard III and T. A. Arias, J. Chem. Phys. 146, 114104 (2017)

This list may not be complete. Please suggest additional citations or
report any other bugs at https://github.com/shankar1729/jdftx/issues

Initialization completed successfully at t[s]:     30.42

Shifting auxilliary hamiltonian by -0.014278 to set nElectrons=762.000000
	Linear fluid (dielectric constant: 78.4, screening length: 5.74355 Bohr) occupying 0.735792 of unit cell:	Completed after 6 iterations at t[s]:     37.28

-------- Electronic minimization -----------
	Linear fluid (dielectric constant: 78.4, screening length: 5.74355 Bohr) occupying 0.735792 of unit cell:	Completed after 0 iterations at t[s]:     44.14
	FillingsUpdate:  mu: -0.171251800  nElectrons: 762.000000
ElecMinimize: Iter:   0  G: -5606.438926875474863  |grad|_K:  3.086e-05  alpha:  1.000e+00
	Linear fluid (dielectric constant: 78.4, screening length: 5.74355 Bohr) occupying 0.739573 of unit cell:	Completed after 24 iterations at t[s]:     74.47
	Linear fluid (dielectric constant: 78.4, screening length: 5.74355 Bohr) occupying 0.735829 of unit cell:	Completed after 24 iterations at t[s]:     88.88
	FillingsUpdate:  mu: -0.171251800  nElectrons: 761.757677
	SubspaceRotationAdjust: set factor to 0.523
ElecMinimize: Iter:   1  G: -5606.441167378503451  |grad|_K:  1.067e-05  alpha:  1.057e-02  linmin: -1.497e-02  t[s]:    101.38
	Linear fluid (dielectric constant: 78.4, screening length: 5.74355 Bohr) occupying 0.735860 of unit cell:	Completed after 11 iterations at t[s]:    115.41
	Linear fluid (dielectric constant: 78.4, screening length: 5.74355 Bohr) occupying 0.735881 of unit cell:	Completed after 10 iterations at t[s]:    127.39
	FillingsUpdate:  mu: -0.171251800  nElectrons: 761.590388
	SubspaceRotationAdjust: set factor to 0.317
ElecMinimize: Iter:   2  G: -5606.441625337866753  |grad|_K:  7.727e-06  alpha:  1.812e-02  linmin:  1.820e-05  t[s]:    147.52
	Linear fluid (dielectric constant: 78.4, screening length: 5.74355 Bohr) occupying 0.735923 of unit cell:	Completed after 8 iterations at t[s]:    161.32
ElecMinimize: 	Predicted alpha/alphaT>3.000000, increasing alphaT to 5.436543e-02.
	Linear fluid (dielectric constant: 78.4, screening length: 5.74355 Bohr) occupying 0.736008 of unit cell:	Completed after 9 iterations at t[s]:    173.24
	Linear fluid (dielectric constant: 78.4, screening length: 5.74355 Bohr) occupying 0.736094 of unit cell:	Completed after 9 iterations at t[s]:    185.68
	FillingsUpdate:  mu: -0.171251800  nElectrons: 761.307478
	SubspaceRotationAdjust: set factor to 0.17
ElecMinimize: Iter:   3  G: -5606.442563016729764  |grad|_K:  1.036e-05  alpha:  9.098e-02  linmin:  3.241e-05  t[s]:    198.11
	Linear fluid (dielectric constant: 78.4, screening length: 5.74355 Bohr) occupying 0.736499 of unit cell:	Completed after 7 iterations at t[s]:    211.28
	Linear fluid (dielectric constant: 78.4, screening length: 5.74355 Bohr) occupying 0.736319 of unit cell:	Completed after 6 iterations at t[s]:    223.33
	FillingsUpdate:  mu: -0.171251800  nElectrons: 761.208027
	SubspaceRotationAdjust: set factor to 0.221
ElecMinimize: Iter:   4  G: -5606.443494235931212  |grad|_K:  5.937e-06  alpha:  5.053e-02  linmin:  7.794e-06  t[s]:    235.93
	Linear fluid (dielectric constant: 78.4, screening length: 5.74355 Bohr) occupying 0.736407 of unit cell:	Completed after 11 iterations at t[s]:    249.91
	Linear fluid (dielectric constant: 78.4, screening length: 5.74355 Bohr) occupying 0.736484 of unit cell:	Completed after 10 iterations at t[s]:    262.03
	FillingsUpdate:  mu: -0.171251800  nElectrons: 761.232104
	SubspaceRotationAdjust: set factor to 0.201
ElecMinimize: Iter:   5  G: -5606.444080441800907  |grad|_K:  5.833e-06  alpha:  9.570e-02  linmin: -3.299e-05  t[s]:    275.04
	Linear fluid (dielectric constant: 78.4, screening length: 5.74355 Bohr) occupying 0.736687 of unit cell:	Completed after 11 iterations at t[s]:    288.11
	Linear fluid (dielectric constant: 78.4, screening length: 5.74355 Bohr) occupying 0.736710 of unit cell:	Completed after 3 iterations at t[s]:    298.84
	FillingsUpdate:  mu: -0.171251800  nElectrons: 761.175123
	SubspaceRotationAdjust: set factor to 0.145
ElecMinimize: Iter:   6  G: -5606.444715589860607  |grad|_K:  4.265e-06  alpha:  1.066e-01  linmin:  7.424e-06  t[s]:    311.15
	Linear fluid (dielectric constant: 78.4, screening length: 5.74355 Bohr) occupying 0.736875 of unit cell:	Completed after 10 iterations at t[s]:    324.50
	Linear fluid (dielectric constant: 78.4, screening length: 5.74355 Bohr) occupying 0.736828 of unit cell:	Completed after 8 iterations at t[s]:    336.24
	FillingsUpdate:  mu: -0.171251800  nElectrons: 761.083127
	SubspaceRotationAdjust: set factor to 0.178
ElecMinimize: Iter:   7  G: -5606.444956130973878  |grad|_K:  3.174e-06  alpha:  7.604e-02  linmin:  1.820e-05  t[s]:    348.75
	Linear fluid (dielectric constant: 78.4, screening length: 5.74355 Bohr) occupying 0.736915 of unit cell:	Completed after 9 iterations at t[s]:    362.44
	Linear fluid (dielectric constant: 78.4, screening length: 5.74355 Bohr) occupying 0.737058 of unit cell:	Completed after 10 iterations at t[s]:    374.06
	FillingsUpdate:  mu: -0.171251800  nElectrons: 760.961528
	SubspaceRotationAdjust: set factor to 0.152
ElecMinimize: Iter:   8  G: -5606.445307412038346  |grad|_K:  4.792e-06  alpha:  2.016e-01  linmin: -1.312e-05  t[s]:    386.70
	Linear fluid (dielectric constant: 78.4, screening length: 5.74355 Bohr) occupying 0.737616 of unit cell:	Completed after 12 iterations at t[s]:    400.54
	Linear fluid (dielectric constant: 78.4, screening length: 5.74355 Bohr) occupying 0.737384 of unit cell:	Completed after 8 iterations at t[s]:    412.42
	FillingsUpdate:  mu: -0.171251800  nElectrons: 760.927137
	SubspaceRotationAdjust: set factor to 0.172
ElecMinimize: Iter:   9  G: -5606.445776826374640  |grad|_K:  3.226e-06  alpha:  1.175e-01  linmin:  1.295e-06  t[s]:    424.83
	Linear fluid (dielectric constant: 78.4, screening length: 5.74355 Bohr) occupying 0.737551 of unit cell:	Completed after 11 iterations at t[s]:    438.07
	Linear fluid (dielectric constant: 78.4, screening length: 5.74355 Bohr) occupying 0.737513 of unit cell:	Completed after 9 iterations at t[s]:    451.09
	FillingsUpdate:  mu: -0.171251800  nElectrons: 760.959709
	SubspaceRotationAdjust: set factor to 0.169
ElecMinimize: Iter:  10  G: -5606.445940414258985  |grad|_K:  2.324e-06  alpha:  9.071e-02  linmin:  7.872e-06  t[s]:    464.10
	Linear fluid (dielectric constant: 78.4, screening length: 5.74355 Bohr) occupying 0.737599 of unit cell:	Completed after 6 iterations at t[s]:    477.14
	Linear fluid (dielectric constant: 78.4, screening length: 5.74355 Bohr) occupying 0.737646 of unit cell:	Completed after 8 iterations at t[s]:    489.67
	FillingsUpdate:  mu: -0.171251800  nElectrons: 760.962077
	SubspaceRotationAdjust: set factor to 0.183
ElecMinimize: Iter:  11  G: -5606.446071103005124  |grad|_K:  2.307e-06  alpha:  1.405e-01  linmin:  1.347e-05  t[s]:    502.28
	Linear fluid (dielectric constant: 78.4, screening length: 5.74355 Bohr) occupying 0.737803 of unit cell:	Completed after 9 iterations at t[s]:    515.11
	Linear fluid (dielectric constant: 78.4, screening length: 5.74355 Bohr) occupying 0.737786 of unit cell:	Completed after 2 iterations at t[s]:    526.31
	FillingsUpdate:  mu: -0.171251800  nElectrons: 760.925494
	SubspaceRotationAdjust: set factor to 0.207
ElecMinimize: Iter:  12  G: -5606.446186204622791  |grad|_K:  2.125e-06  alpha:  1.254e-01  linmin:  1.387e-05  t[s]:    538.84
	Linear fluid (dielectric constant: 78.4, screening length: 5.74355 Bohr) occupying 0.737918 of unit cell:	Completed after 7 iterations at t[s]:    550.92
	Linear fluid (dielectric constant: 78.4, screening length: 5.74355 Bohr) occupying 0.737924 of unit cell:	Completed after 0 iterations at t[s]:    561.07
	FillingsUpdate:  mu: -0.171251800  nElectrons: 760.908827
	SubspaceRotationAdjust: set factor to 0.214
ElecMinimize: Iter:  13  G: -5606.446287994390332  |grad|_K:  1.912e-06  alpha:  1.307e-01  linmin: -6.232e-05  t[s]:    573.71
	Linear fluid (dielectric constant: 78.4, screening length: 5.74355 Bohr) occupying 0.738043 of unit cell:	Completed after 8 iterations at t[s]:    588.28
	Linear fluid (dielectric constant: 78.4, screening length: 5.74355 Bohr) occupying 0.738026 of unit cell:	Completed after 2 iterations at t[s]:    599.41
	FillingsUpdate:  mu: -0.171251800  nElectrons: 760.924970
	SubspaceRotationAdjust: set factor to 0.219
ElecMinimize: Iter:  14  G: -5606.446360627866852  |grad|_K:  1.857e-06  alpha:  1.126e-01  linmin:  1.028e-05  t[s]:    613.02
	Linear fluid (dielectric constant: 78.4, screening length: 5.74355 Bohr) occupying 0.738130 of unit cell:	Completed after 3 iterations at t[s]:    626.48
	Linear fluid (dielectric constant: 78.4, screening length: 5.74355 Bohr) occupying 0.738152 of unit cell:	Completed after 3 iterations at t[s]:    638.29
	FillingsUpdate:  mu: -0.171251800  nElectrons: 760.915917
	SubspaceRotationAdjust: set factor to 0.286
ElecMinimize: Iter:  15  G: -5606.446441176166445  |grad|_K:  1.732e-06  alpha:  1.359e-01  linmin:  1.204e-05  t[s]:    650.61
	Linear fluid (dielectric constant: 78.4, screening length: 5.74355 Bohr) occupying 0.738264 of unit cell:	Completed after 10 iterations at t[s]:    663.47
	Linear fluid (dielectric constant: 78.4, screening length: 5.74355 Bohr) occupying 0.738220 of unit cell:	Completed after 8 iterations at t[s]:    675.90
	FillingsUpdate:  mu: -0.171251800  nElectrons: 760.887028
	SubspaceRotationAdjust: set factor to 0.247
ElecMinimize: Iter:  16  G: -5606.446483739276118  |grad|_K:  1.349e-06  alpha:  8.305e-02  linmin:  7.034e-06  t[s]:    688.10
	Linear fluid (dielectric constant: 78.4, screening length: 5.74355 Bohr) occupying 0.738260 of unit cell:	Completed after 3 iterations at t[s]:    700.01
	Linear fluid (dielectric constant: 78.4, screening length: 5.74355 Bohr) occupying 0.738297 of unit cell:	Completed after 2 iterations at t[s]:    710.72
	FillingsUpdate:  mu: -0.171251800  nElectrons: 760.887468
	SubspaceRotationAdjust: set factor to 0.19
ElecMinimize: Iter:  17  G: -5606.446533485136570  |grad|_K:  1.363e-06  alpha:  1.589e-01  linmin:  2.749e-05  t[s]:    723.81
	Linear fluid (dielectric constant: 78.4, screening length: 5.74355 Bohr) occupying 0.738363 of unit cell:	Completed after 9 iterations at t[s]:    737.67
	Linear fluid (dielectric constant: 78.4, screening length: 5.74355 Bohr) occupying 0.738329 of unit cell:	Completed after 9 iterations at t[s]:    749.78
	FillingsUpdate:  mu: -0.171251800  nElectrons: 760.914484
	SubspaceRotationAdjust: set factor to 0.161
ElecMinimize: Iter:  18  G: -5606.446557211626896  |grad|_K:  8.596e-07  alpha:  7.661e-02  linmin:  2.580e-05  t[s]:    762.23
	Linear fluid (dielectric constant: 78.4, screening length: 5.74355 Bohr) occupying 0.738338 of unit cell:	Completed after 2 iterations at t[s]:    774.72
	Linear fluid (dielectric constant: 78.4, screening length: 5.74355 Bohr) occupying 0.738350 of unit cell:	Completed after 7 iterations at t[s]:    785.81
	FillingsUpdate:  mu: -0.171251800  nElectrons: 760.927934
	SubspaceRotationAdjust: set factor to 0.124
	SubspaceRotationAdjust: resetting CG because factor has changed by 0.12403
	Linear fluid (dielectric constant: 78.4, screening length: 5.74355 Bohr) occupying 0.738350 of unit cell:	Completed after 0 iterations at t[s]:    803.66
ElecMinimize: 	State modified externally: resetting search direction.
ElecMinimize: Iter:  19  G: -5606.446579490254408  |grad|_K:  9.420e-07  alpha:  1.830e-01
	Linear fluid (dielectric constant: 78.4, screening length: 5.74355 Bohr) occupying 0.738341 of unit cell:	Completed after 8 iterations at t[s]:    830.18
	Linear fluid (dielectric constant: 78.4, screening length: 5.74355 Bohr) occupying 0.738342 of unit cell:	Completed after 2 iterations at t[s]:    841.05
	FillingsUpdate:  mu: -0.171251800  nElectrons: 760.902170
	SubspaceRotationAdjust: set factor to 0.11
ElecMinimize: Iter:  20  G: -5606.446604112311434  |grad|_K:  5.457e-07  alpha:  1.599e-01  linmin:  9.376e-04  t[s]:    853.77
	Linear fluid (dielectric constant: 78.4, screening length: 5.74355 Bohr) occupying 0.738331 of unit cell:	Completed after 2 iterations at t[s]:    865.27
	Linear fluid (dielectric constant: 78.4, screening length: 5.74355 Bohr) occupying 0.738320 of unit cell:	Completed after 2 iterations at t[s]:    876.08
	FillingsUpdate:  mu: -0.171251800  nElectrons: 760.907101
	SubspaceRotationAdjust: set factor to 0.108
ElecMinimize: Iter:  21  G: -5606.446619183514485  |grad|_K:  4.616e-07  alpha:  3.031e-01  linmin: -1.147e-04  t[s]:    888.39
	Linear fluid (dielectric constant: 78.4, screening length: 5.74355 Bohr) occupying 0.738294 of unit cell:	Completed after 3 iterations at t[s]:    901.78
	Linear fluid (dielectric constant: 78.4, screening length: 5.74355 Bohr) occupying 0.738293 of unit cell:	Completed after 0 iterations at t[s]:    912.12
	FillingsUpdate:  mu: -0.171251800  nElectrons: 760.908952
	SubspaceRotationAdjust: set factor to 0.112
ElecMinimize: Iter:  22  G: -5606.446630733695201  |grad|_K:  3.316e-07  alpha:  3.112e-01  linmin: -5.440e-04  t[s]:    925.21
	Linear fluid (dielectric constant: 78.4, screening length: 5.74355 Bohr) occupying 0.738274 of unit cell:	Completed after 1 iterations at t[s]:    936.99
	Linear fluid (dielectric constant: 78.4, screening length: 5.74355 Bohr) occupying 0.738273 of unit cell:	Completed after 0 iterations at t[s]:    948.21
	FillingsUpdate:  mu: -0.171251800  nElectrons: 760.912047
	SubspaceRotationAdjust: set factor to 0.122
ElecMinimize: Iter:  23  G: -5606.446637170767644  |grad|_K:  2.334e-07  alpha:  3.293e-01  linmin: -4.367e-04  t[s]:    960.73
	Linear fluid (dielectric constant: 78.4, screening length: 5.74355 Bohr) occupying 0.738262 of unit cell:	Completed after 3 iterations at t[s]:    973.05
	Linear fluid (dielectric constant: 78.4, screening length: 5.74355 Bohr) occupying 0.738264 of unit cell:	Completed after 0 iterations at t[s]:    983.70
	FillingsUpdate:  mu: -0.171251800  nElectrons: 760.912038
	SubspaceRotationAdjust: set factor to 0.124
ElecMinimize: Iter:  24  G: -5606.446639813948423  |grad|_K:  2.177e-07  alpha:  2.668e-01  linmin:  1.459e-03  t[s]:    996.47
	Linear fluid (dielectric constant: 78.4, screening length: 5.74355 Bohr) occupying 0.738259 of unit cell:	Completed after 2 iterations at t[s]:   1008.99
	Linear fluid (dielectric constant: 78.4, screening length: 5.74355 Bohr) occupying 0.738259 of unit cell:	Completed after 0 iterations at t[s]:   1019.69
	FillingsUpdate:  mu: -0.171251800  nElectrons: 760.907313
	SubspaceRotationAdjust: set factor to 0.115
ElecMinimize: Iter:  25  G: -5606.446641520826233  |grad|_K:  1.752e-07  alpha:  2.403e-01  linmin: -3.095e-04  t[s]:   1032.82
	Linear fluid (dielectric constant: 78.4, screening length: 5.74355 Bohr) occupying 0.738257 of unit cell:	Completed after 2 iterations at t[s]:   1045.46
	Linear fluid (dielectric constant: 78.4, screening length: 5.74355 Bohr) occupying 0.738256 of unit cell:	Completed after 0 iterations at t[s]:   1056.07
	FillingsUpdate:  mu: -0.171251800  nElectrons: 760.911836
	SubspaceRotationAdjust: set factor to 0.142
ElecMinimize: Iter:  26  G: -5606.446643244327788  |grad|_K:  9.543e-08  alpha:  2.974e-01  linmin: -2.670e-03  t[s]:   1068.50
	Linear fluid (dielectric constant: 78.4, screening length: 5.74355 Bohr) occupying 0.738258 of unit cell:	Completed after 0 iterations at t[s]:   1081.48
	Linear fluid (dielectric constant: 78.4, screening length: 5.74355 Bohr) occupying 0.738259 of unit cell:	Completed after 3 iterations at t[s]:   1092.59
	FillingsUpdate:  mu: -0.171251800  nElectrons: 760.919144
	SubspaceRotationAdjust: set factor to 0.143
ElecMinimize: Iter:  27  G: -5606.446643928567937  |grad|_K:  1.684e-07  alpha:  6.436e-01  linmin:  1.717e-03  t[s]:   1105.07
	Linear fluid (dielectric constant: 78.4, screening length: 5.74355 Bohr) occupying 0.738275 of unit cell:	Completed after 2 iterations at t[s]:   1116.74
	Linear fluid (dielectric constant: 78.4, screening length: 5.74355 Bohr) occupying 0.738263 of unit cell:	Completed after 3 iterations at t[s]:   1127.57
	FillingsUpdate:  mu: -0.171251800  nElectrons: 760.920419
	SubspaceRotationAdjust: set factor to 0.202
ElecMinimize: Iter:  28  G: -5606.446644154240857  |grad|_K:  1.801e-07  alpha:  1.384e-01  linmin:  6.539e-06  t[s]:   1139.88
	Linear fluid (dielectric constant: 78.4, screening length: 5.74355 Bohr) occupying 0.738268 of unit cell:	Completed after 1 iterations at t[s]:   1152.52
	Linear fluid (dielectric constant: 78.4, screening length: 5.74355 Bohr) occupying 0.738269 of unit cell:	Completed after 0 iterations at t[s]:   1162.84
	FillingsUpdate:  mu: -0.171251800  nElectrons: 760.917965
	SubspaceRotationAdjust: set factor to 0.217
ElecMinimize: Iter:  29  G: -5606.446645115098363  |grad|_K:  1.410e-07  alpha:  1.691e-01  linmin: -2.132e-04  t[s]:   1175.65
	Linear fluid (dielectric constant: 78.4, screening length: 5.74355 Bohr) occupying 0.738273 of unit cell:	Completed after 3 iterations at t[s]:   1188.19
	Linear fluid (dielectric constant: 78.4, screening length: 5.74355 Bohr) occupying 0.738271 of unit cell:	Completed after 0 iterations at t[s]:   1198.43
	FillingsUpdate:  mu: -0.171251800  nElectrons: 760.917015
	SubspaceRotationAdjust: set factor to 0.17
ElecMinimize: Iter:  30  G: -5606.446645377148343  |grad|_K:  1.710e-07  alpha:  8.308e-02  linmin:  1.004e-03  t[s]:   1210.36
	Linear fluid (dielectric constant: 78.4, screening length: 5.74355 Bohr) occupying 0.738274 of unit cell:	Completed after 0 iterations at t[s]:   1222.23
	Linear fluid (dielectric constant: 78.4, screening length: 5.74355 Bohr) occupying 0.738274 of unit cell:	Completed after 0 iterations at t[s]:   1232.63
	FillingsUpdate:  mu: -0.171251800  nElectrons: 760.918871
	SubspaceRotationAdjust: set factor to 0.161
ElecMinimize: Iter:  31  G: -5606.446645628345323  |grad|_K:  1.384e-07  alpha:  7.256e-02  linmin: -1.856e-04  t[s]:   1244.97
	Linear fluid (dielectric constant: 78.4, screening length: 5.74355 Bohr) occupying 0.738275 of unit cell:	Completed after 2 iterations at t[s]:   1257.20
	Linear fluid (dielectric constant: 78.4, screening length: 5.74355 Bohr) occupying 0.738274 of unit cell:	Completed after 0 iterations at t[s]:   1268.03
	FillingsUpdate:  mu: -0.171251800  nElectrons: 760.920121
	SubspaceRotationAdjust: set factor to 0.131
ElecMinimize: Iter:  32  G: -5606.446645675875516  |grad|_K:  1.487e-07  alpha:  2.861e-02  linmin:  9.771e-04  t[s]:   1281.90
	Linear fluid (dielectric constant: 78.4, screening length: 5.74355 Bohr) occupying 0.738275 of unit cell:	Completed after 0 iterations at t[s]:   1294.20
	Linear fluid (dielectric constant: 78.4, screening length: 5.74355 Bohr) occupying 0.738277 of unit cell:	Completed after 0 iterations at t[s]:   1304.70
	FillingsUpdate:  mu: -0.171251800  nElectrons: 760.922652
	SubspaceRotationAdjust: set factor to 0.156
ElecMinimize: Iter:  33  G: -5606.446645810336122  |grad|_K:  1.380e-07  alpha:  7.229e-02  linmin: -2.188e-06  t[s]:   1317.16
	Linear fluid (dielectric constant: 78.4, screening length: 5.74355 Bohr) occupying 0.738279 of unit cell:	Completed after 0 iterations at t[s]:   1329.09
	Linear fluid (dielectric constant: 78.4, screening length: 5.74355 Bohr) occupying 0.738280 of unit cell:	Completed after 1 iterations at t[s]:   1340.16
ElecMinimize: 	Step increased G by 1.903536e-07, reducing alpha to 1.246880e-02.
	Linear fluid (dielectric constant: 78.4, screening length: 5.74355 Bohr) occupying 0.738277 of unit cell:	Completed after 2 iterations at t[s]:   1361.16
ElecMinimize: 	Step increased G by 6.772643e-08, reducing alpha to 1.246880e-03.
	Linear fluid (dielectric constant: 78.4, screening length: 5.74355 Bohr) occupying 0.738277 of unit cell:	Completed after 0 iterations at t[s]:   1382.85
ElecMinimize: 	Step increased G by 1.008266e-07, reducing alpha to 1.246880e-04.
ElecMinimize: 	Step failed to reduce G after 3 attempts. Quitting step.
ElecMinimize: 	Undoing step.
	Linear fluid (dielectric constant: 78.4, screening length: 5.74355 Bohr) occupying 0.738277 of unit cell:	Completed after 0 iterations at t[s]:   1404.15
ElecMinimize: 	Step failed: resetting search direction.
	FillingsUpdate:  mu: -0.171251800  nElectrons: 760.922671
	SubspaceRotationAdjust: set factor to 0.152
ElecMinimize: Iter:  34  G: -5606.446645709133918  |grad|_K:  1.250e-07  alpha:  1.247e-04
	Linear fluid (dielectric constant: 78.4, screening length: 5.74355 Bohr) occupying 0.738277 of unit cell:	Completed after 0 iterations at t[s]:   1429.13
ElecMinimize: 	Predicted alpha/alphaT>3.000000, increasing alphaT to 2.168753e-01.
	Linear fluid (dielectric constant: 78.4, screening length: 5.74355 Bohr) occupying 0.738277 of unit cell:	Completed after 3 iterations at t[s]:   1440.12
	Linear fluid (dielectric constant: 78.4, screening length: 5.74355 Bohr) occupying 0.738277 of unit cell:	Completed after 0 iterations at t[s]:   1450.77
	FillingsUpdate:  mu: -0.171251800  nElectrons: 760.919072
	SubspaceRotationAdjust: set factor to 0.103
ElecMinimize: Iter:  35  G: -5606.446646201608928  |grad|_K:  1.229e-07  alpha:  1.403e-01  linmin:  9.347e-03  t[s]:   1463.08
	Linear fluid (dielectric constant: 78.4, screening length: 5.74355 Bohr) occupying 0.738277 of unit cell:	Completed after 0 iterations at t[s]:   1475.28
ElecMinimize: 	Predicted alpha/alphaT>3.000000, increasing alphaT to 4.208832e-01.
	Linear fluid (dielectric constant: 78.4, screening length: 5.74355 Bohr) occupying 0.738278 of unit cell:	Completed after 2 iterations at t[s]:   1485.73
	Linear fluid (dielectric constant: 78.4, screening length: 5.74355 Bohr) occupying 0.738278 of unit cell:	Completed after 0 iterations at t[s]:   1495.92
	FillingsUpdate:  mu: -0.171251800  nElectrons: 760.917776
	SubspaceRotationAdjust: set factor to 0.145
ElecMinimize: Iter:  36  G: -5606.446646454254733  |grad|_K:  4.879e-08  alpha:  2.612e-01  linmin: -1.445e-03  t[s]:   1508.97
	Linear fluid (dielectric constant: 78.4, screening length: 5.74355 Bohr) occupying 0.738279 of unit cell:	Completed after 0 iterations at t[s]:   1520.23
	Linear fluid (dielectric constant: 78.4, screening length: 5.74355 Bohr) occupying 0.738280 of unit cell:	Completed after 0 iterations at t[s]:   1530.89
	FillingsUpdate:  mu: -0.171251800  nElectrons: 760.917824
	SubspaceRotationAdjust: set factor to 0.162
ElecMinimize: Iter:  37  G: -5606.446646735543254  |grad|_K:  4.442e-08  alpha:  6.562e-01  linmin:  6.407e-06  t[s]:   1543.34
	Linear fluid (dielectric constant: 78.4, screening length: 5.74355 Bohr) occupying 0.738283 of unit cell:	Completed after 2 iterations at t[s]:   1555.86
	Linear fluid (dielectric constant: 78.4, screening length: 5.74355 Bohr) occupying 0.738281 of unit cell:	Completed after 0 iterations at t[s]:   1566.78
ElecMinimize: 	Step increased G by 2.584147e-08, reducing alpha to 1.613394e-02.
	Linear fluid (dielectric constant: 78.4, screening length: 5.74355 Bohr) occupying 0.738280 of unit cell:	Completed after 0 iterations at t[s]:   1588.22
	FillingsUpdate:  mu: -0.171251800  nElectrons: 760.917844
	SubspaceRotationAdjust: set factor to 0.129
ElecMinimize: Iter:  38  G: -5606.446646782943390  |grad|_K:  1.342e-07  alpha:  1.613e-02  linmin:  1.844e-03  t[s]:   1600.70
	Linear fluid (dielectric constant: 78.4, screening length: 5.74355 Bohr) occupying 0.738281 of unit cell:	Completed after 0 iterations at t[s]:   1612.31
	Linear fluid (dielectric constant: 78.4, screening length: 5.74355 Bohr) occupying 0.738281 of unit cell:	Completed after 0 iterations at t[s]:   1622.38
	FillingsUpdate:  mu: -0.171251800  nElectrons: 760.917643
	SubspaceRotationAdjust: set factor to 0.104
ElecMinimize: Iter:  39  G: -5606.446646806267381  |grad|_K:  1.204e-07  alpha:  1.890e-02  linmin: -1.204e-06  t[s]:   1634.68
	Linear fluid (dielectric constant: 78.4, screening length: 5.74355 Bohr) occupying 0.738282 of unit cell:	Completed after 0 iterations at t[s]:   1646.37
	Linear fluid (dielectric constant: 78.4, screening length: 5.74355 Bohr) occupying 0.738284 of unit cell:	Completed after 2 iterations at t[s]:   1657.89
ElecMinimize: 	Step increased G by 1.040098e-07, reducing alpha to 5.132494e-03.
	Linear fluid (dielectric constant: 78.4, screening length: 5.74355 Bohr) occupying 0.738281 of unit cell:	Completed after 0 iterations at t[s]:   1679.77
ElecMinimize: 	Step increased G by 5.623860e-08, reducing alpha to 5.132494e-04.
	Linear fluid (dielectric constant: 78.4, screening length: 5.74355 Bohr) occupying 0.738281 of unit cell:	Completed after 0 iterations at t[s]:   1701.88
ElecMinimize: 	Step increased G by 6.295977e-08, reducing alpha to 5.132494e-05.
ElecMinimize: 	Step failed to reduce G after 3 attempts. Quitting step.
ElecMinimize: 	Undoing step.
	Linear fluid (dielectric constant: 78.4, screening length: 5.74355 Bohr) occupying 0.738281 of unit cell:	Completed after 0 iterations at t[s]:   1723.40
ElecMinimize: 	Step failed: resetting search direction.
	FillingsUpdate:  mu: -0.171251800  nElectrons: 760.917631
	SubspaceRotationAdjust: set factor to 0.113
ElecMinimize: Iter:  40  G: -5606.446646743200290  |grad|_K:  4.737e-08  alpha:  5.132e-05
	Linear fluid (dielectric constant: 78.4, screening length: 5.74355 Bohr) occupying 0.738281 of unit cell:	Completed after 0 iterations at t[s]:   1748.48
ElecMinimize: 	Predicted alpha/alphaT>3.000000, increasing alphaT to 5.669400e-02.
	Linear fluid (dielectric constant: 78.4, screening length: 5.74355 Bohr) occupying 0.738281 of unit cell:	Completed after 0 iterations at t[s]:   1759.37
ElecMinimize: 	Predicted alpha/alphaT>3.000000, increasing alphaT to 1.700820e-01.
	Linear fluid (dielectric constant: 78.4, screening length: 5.74355 Bohr) occupying 0.738282 of unit cell:	Completed after 0 iterations at t[s]:   1771.08
ElecMinimize: 	Predicted alpha/alphaT>3.000000, increasing alphaT to 5.102460e-01.
	Linear fluid (dielectric constant: 78.4, screening length: 5.74355 Bohr) occupying 0.738284 of unit cell:	Completed after 3 iterations at t[s]:   1782.48
ElecMinimize: 	Step increased G by 4.593112e-07, reducing alpha to 8.566363e-02.
	Linear fluid (dielectric constant: 78.4, screening length: 5.74355 Bohr) occupying 0.738281 of unit cell:	Completed after 2 iterations at t[s]:   1804.17
	FillingsUpdate:  mu: -0.171251800  nElectrons: 760.917192
	SubspaceRotationAdjust: set factor to 0.126
ElecMinimize: Iter:  41  G: -5606.446646752846391  |grad|_K:  4.300e-08  alpha:  8.566e-02  linmin: -6.142e-03  t[s]:   1816.58
	Linear fluid (dielectric constant: 78.4, screening length: 5.74355 Bohr) occupying 0.738282 of unit cell:	Completed after 0 iterations at t[s]:   1828.64
ElecMinimize: 	Predicted alpha/alphaT>3.000000, increasing alphaT to 2.569909e-01.
	Linear fluid (dielectric constant: 78.4, screening length: 5.74355 Bohr) occupying 0.738283 of unit cell:	Completed after 0 iterations at t[s]:   1838.61
	Linear fluid (dielectric constant: 78.4, screening length: 5.74355 Bohr) occupying 0.738283 of unit cell:	Completed after 2 iterations at t[s]:   1849.41
ElecMinimize: 	Step increased G by 1.467770e-07, reducing alpha to 3.211590e-02.
	Linear fluid (dielectric constant: 78.4, screening length: 5.74355 Bohr) occupying 0.738281 of unit cell:	Completed after 1 iterations at t[s]:   1871.86
	FillingsUpdate:  mu: -0.171251800  nElectrons: 760.917042
	SubspaceRotationAdjust: set factor to 0.113
ElecMinimize: Iter:  42  G: -5606.446646833536761  |grad|_K:  2.663e-08  alpha:  3.212e-02  linmin:  6.271e-04  t[s]:   1884.13
	Linear fluid (dielectric constant: 78.4, screening length: 5.74355 Bohr) occupying 0.738282 of unit cell:	Completed after 0 iterations at t[s]:   1896.11
ElecMinimize: 	Predicted alpha/alphaT>3.000000, increasing alphaT to 9.634770e-02.
	Linear fluid (dielectric constant: 78.4, screening length: 5.74355 Bohr) occupying 0.738282 of unit cell:	Completed after 0 iterations at t[s]:   1907.25
ElecMinimize: 	Predicted alpha/alphaT>3.000000, increasing alphaT to 2.890431e-01.
	Linear fluid (dielectric constant: 78.4, screening length: 5.74355 Bohr) occupying 0.738283 of unit cell:	Completed after 0 iterations at t[s]:   1918.86
	Linear fluid (dielectric constant: 78.4, screening length: 5.74355 Bohr) occupying 0.738282 of unit cell:	Completed after 0 iterations at t[s]:   1930.03
	FillingsUpdate:  mu: -0.171251800  nElectrons: 760.916905
	SubspaceRotationAdjust: set factor to 0.145
ElecMinimize: Iter:  43  G: -5606.446646834272542  |grad|_K:  2.187e-08  alpha:  1.620e-01  linmin: -3.554e-03  t[s]:   1942.11
	Linear fluid (dielectric constant: 78.4, screening length: 5.74355 Bohr) occupying 0.738283 of unit cell:	Completed after 0 iterations at t[s]:   1953.95
ElecMinimize: 	Predicted alpha/alphaT>3.000000, increasing alphaT to 4.860010e-01.
	Linear fluid (dielectric constant: 78.4, screening length: 5.74355 Bohr) occupying 0.738286 of unit cell:	Completed after 0 iterations at t[s]:   1964.80
	Linear fluid (dielectric constant: 78.4, screening length: 5.74355 Bohr) occupying 0.738286 of unit cell:	Completed after 1 iterations at t[s]:   1976.03
ElecMinimize: 	Step increased G by 1.693852e-07, reducing alpha to 5.719980e-02.
	Linear fluid (dielectric constant: 78.4, screening length: 5.74355 Bohr) occupying 0.738283 of unit cell:	Completed after 0 iterations at t[s]:   1997.87
	FillingsUpdate:  mu: -0.171251800  nElectrons: 760.916945
	SubspaceRotationAdjust: set factor to 0.136
ElecMinimize: Iter:  44  G: -5606.446646865949333  |grad|_K:  7.093e-08  alpha:  5.720e-02  linmin:  2.271e-03  t[s]:   2010.20
ElecMinimize: 	Bad step direction: g.d > 0.
ElecMinimize: 	Undoing step.
	Linear fluid (dielectric constant: 78.4, screening length: 5.74355 Bohr) occupying 0.738283 of unit cell:	Completed after 0 iterations at t[s]:   2022.46
ElecMinimize: 	Step failed: resetting search direction.
	FillingsUpdate:  mu: -0.171251800  nElectrons: 760.916945
	SubspaceRotationAdjust: set factor to 0.153
ElecMinimize: Iter:  45  G: -5606.446646865961156  |grad|_K:  6.990e-08  alpha:  0.000e+00
	Linear fluid (dielectric constant: 78.4, screening length: 5.74355 Bohr) occupying 0.738283 of unit cell:	Completed after 0 iterations at t[s]:   2047.20
ElecMinimize: 	Predicted alpha/alphaT>3.000000, increasing alphaT to 1.715994e-01.
	Linear fluid (dielectric constant: 78.4, screening length: 5.74355 Bohr) occupying 0.738283 of unit cell:	Completed after 2 iterations at t[s]:   2058.25
	Linear fluid (dielectric constant: 78.4, screening length: 5.74355 Bohr) occupying 0.738283 of unit cell:	Completed after 0 iterations at t[s]:   2069.08
	FillingsUpdate:  mu: -0.171251800  nElectrons: 760.916696
	SubspaceRotationAdjust: set factor to 0.104
ElecMinimize: Iter:  46  G: -5606.446646879829132  |grad|_K:  5.978e-08  alpha:  5.775e-02  linmin:  1.271e-02  t[s]:   2082.10
	Linear fluid (dielectric constant: 78.4, screening length: 5.74355 Bohr) occupying 0.738283 of unit cell:	Completed after 0 iterations at t[s]:   2094.08
ElecMinimize: 	Predicted alpha/alphaT>3.000000, increasing alphaT to 1.732611e-01.
	Linear fluid (dielectric constant: 78.4, screening length: 5.74355 Bohr) occupying 0.738284 of unit cell:	Completed after 0 iterations at t[s]:   2104.40
ElecMinimize: 	Predicted alpha/alphaT>3.000000, increasing alphaT to 5.197833e-01.
	Linear fluid (dielectric constant: 78.4, screening length: 5.74355 Bohr) occupying 0.738286 of unit cell:	Completed after 2 iterations at t[s]:   2115.03
	Linear fluid (dielectric constant: 78.4, screening length: 5.74355 Bohr) occupying 0.738284 of unit cell:	Completed after 0 iterations at t[s]:   2124.96
ElecMinimize: 	Step increased G by 3.213427e-08, reducing alpha to 1.895441e-02.
	Linear fluid (dielectric constant: 78.4, screening length: 5.74355 Bohr) occupying 0.738283 of unit cell:	Completed after 0 iterations at t[s]:   2146.19
ElecMinimize: 	Step increased G by 2.722390e-08, reducing alpha to 1.895441e-03.
	Linear fluid (dielectric constant: 78.4, screening length: 5.74355 Bohr) occupying 0.738283 of unit cell:	Completed after 0 iterations at t[s]:   2167.48
ElecMinimize: 	Step increased G by 2.708111e-08, reducing alpha to 1.895441e-04.
ElecMinimize: 	Step failed to reduce G after 3 attempts. Quitting step.
ElecMinimize: 	Undoing step.
	Linear fluid (dielectric constant: 78.4, screening length: 5.74355 Bohr) occupying 0.738283 of unit cell:	Completed after 0 iterations at t[s]:   2189.05
ElecMinimize: 	Step failed: resetting search direction.
	FillingsUpdate:  mu: -0.171251800  nElectrons: 760.916693
	SubspaceRotationAdjust: set factor to 0.0605
ElecMinimize: Iter:  47  G: -5606.446646852722552  |grad|_K:  2.912e-08  alpha:  1.895e-04
	Linear fluid (dielectric constant: 78.4, screening length: 5.74355 Bohr) occupying 0.738283 of unit cell:	Completed after 0 iterations at t[s]:   2212.95
ElecMinimize: 	Predicted alpha/alphaT>3.000000, increasing alphaT to 1.732611e-01.
	Linear fluid (dielectric constant: 78.4, screening length: 5.74355 Bohr) occupying 0.738283 of unit cell:	Completed after 0 iterations at t[s]:   2223.05
ElecMinimize: 	Predicted alpha/alphaT>3.000000, increasing alphaT to 5.197833e-01.
	Linear fluid (dielectric constant: 78.4, screening length: 5.74355 Bohr) occupying 0.738284 of unit cell:	Completed after 2 iterations at t[s]:   2234.41
	Linear fluid (dielectric constant: 78.4, screening length: 5.74355 Bohr) occupying 0.738283 of unit cell:	Completed after 0 iterations at t[s]:   2245.57
	FillingsUpdate:  mu: -0.171251800  nElectrons: 760.916784
	SubspaceRotationAdjust: set factor to 0.0537
ElecMinimize: Iter:  48  G: -5606.446646885578048  |grad|_K:  7.864e-08  alpha:  9.360e-02  linmin:  8.354e-03  t[s]:   2259.11
ElecMinimize: 	Bad step direction: g.d > 0.
ElecMinimize: 	Undoing step.
	Linear fluid (dielectric constant: 78.4, screening length: 5.74355 Bohr) occupying 0.738283 of unit cell:	Completed after 0 iterations at t[s]:   2271.04
ElecMinimize: 	Step failed: resetting search direction.
	FillingsUpdate:  mu: -0.171251800  nElectrons: 760.916784
	SubspaceRotationAdjust: set factor to 0.0677
ElecMinimize: Iter:  49  G: -5606.446646885623522  |grad|_K:  7.761e-08  alpha:  0.000e+00
	Linear fluid (dielectric constant: 78.4, screening length: 5.74355 Bohr) occupying 0.738283 of unit cell:	Completed after 1 iterations at t[s]:   2295.31
	Linear fluid (dielectric constant: 78.4, screening length: 5.74355 Bohr) occupying 0.738283 of unit cell:	Completed after 0 iterations at t[s]:   2306.27
ElecMinimize: 	Step increased G by 4.153571e-08, reducing alpha to 3.775614e-03.
	Linear fluid (dielectric constant: 78.4, screening length: 5.74355 Bohr) occupying 0.738283 of unit cell:	Completed after 0 iterations at t[s]:   2327.85
ElecMinimize: 	Step increased G by 4.383128e-08, reducing alpha to 3.775614e-04.
	Linear fluid (dielectric constant: 78.4, screening length: 5.74355 Bohr) occupying 0.738283 of unit cell:	Completed after 0 iterations at t[s]:   2349.46
ElecMinimize: 	Step increased G by 4.424510e-08, reducing alpha to 3.775614e-05.
ElecMinimize: 	Step failed to reduce G after 3 attempts. Quitting step.
ElecMinimize: 	Undoing step.
	Linear fluid (dielectric constant: 78.4, screening length: 5.74355 Bohr) occupying 0.738283 of unit cell:	Completed after 0 iterations at t[s]:   2371.40
ElecMinimize: 	Step failed along negative gradient direction.
ElecMinimize: Probably at roundoff error limit. (Stopping)
Setting wave functions to eigenvectors of Hamiltonian

# Ionic positions in lattice coordinates:
ion Ni   0.082334118568968   0.082334115997540   0.537577342960231 0
ion Ni  -0.000860295350962  -0.000860297922391   0.465599058143562 0
ion Ni   0.335326625163650   0.082334115997540   0.537577342960231 0
ion Ni   0.248598677006512   0.002797505717135   0.464406785341277 0
ion Ni   0.581504489827445   0.088157936511706   0.538139928735602 0
ion Ni   0.501715453003511  -0.000860297922391   0.465599058143562 0
ion Ni   0.830332433391007   0.088157936511706   0.538139928735602 0
ion Ni   0.749941044133513   0.000112771463132   0.465182599243594 0
ion Ni   0.082334118568968   0.335326622592222   0.537577342960231 0
ion Ni   0.002797508288563   0.248598674435083   0.464406785341277 0
ion Ni   0.332006260422611   0.332006257851183   0.535831799193832 0
ion Ni   0.248598677006512   0.248598674435083   0.464406785341277 0
ion Ni   0.580579406908700   0.338836045912759   0.530503930256892 0
ion Ni   0.497895464373075   0.252669374017721   0.462050791828587 0
ion Ni   0.835982341456365   0.332006257851183   0.535831799193832 0
ion Ni   0.749430021339362   0.252669374017721   0.462050791828587 0
ion Ni   0.088157939083134   0.581504487256017   0.538139928735602 0
ion Ni  -0.000860295350962   0.501715450432083   0.465599058143562 0
ion Ni   0.338836048484187   0.580579404337271   0.530503930256892 0
ion Ni   0.252669376589150   0.497895461801647   0.462050791828587 0
ion Ni   0.580579406908700   0.580579404337271   0.530503930256892 0
ion Ni   0.499998287433862   0.499998284862434   0.459072333229185 0
ion Ni   0.830332433391007   0.581504487256017   0.538139928735602 0
ion Ni   0.749430021339362   0.497895461801647   0.462050791828587 0
ion Ni   0.088157939083134   0.830332430819579   0.538139928735602 0
ion Ni   0.000112774034560   0.749941041562085   0.465182599243594 0
ion Ni   0.332006260422611   0.835982338884936   0.535831799193832 0
ion Ni   0.252669376589150   0.749430018767933   0.462050791828587 0
ion Ni   0.581504489827445   0.830332430819579   0.538139928735602 0
ion Ni   0.497895464373075   0.749430018767933   0.462050791828587 0
ion Ni   0.833331620767196   0.833331618195767   0.538256269745407 0
ion Ni   0.749941044133513   0.749941041562085   0.465182599243594 0
ion Te   0.082074898371546   0.082074895800118   0.399673698308951 0
ion Te  -0.001226098701818  -0.001226101273247   0.601965625122032 0
ion Te   0.335845065558494   0.082074895800118   0.399673698308951 0
ion Te   0.249451458674169   0.001091942381820   0.602003654089030 0
ion Te   0.583194990566444   0.083922425162705   0.400699565980811 0
ion Te   0.502447059705223  -0.001226101273247   0.601965625122032 0
ion Te   0.832877444001009   0.083922425162705   0.400699565980811 0
ion Te   0.749432834180311   0.001129191369537   0.602023468409915 0
ion Te   0.082074898371546   0.335845062987065   0.399673698308951 0
ion Te   0.001091944953248   0.249451456102741   0.602003654089030 0
ion Te   0.330923594745487   0.330923592174059   0.397841811769758 0
ion Te   0.249451458674169   0.249451456102741   0.602003654089030 0
ion Te   0.583113961766229   0.333766936197701   0.396159495329480 0
ion Te   0.499354377982159   0.258546546817822   0.599861063205005 0
ion Te   0.838147672810613   0.330923592174059   0.397841811769758 0
ion Te   0.742093934930177   0.258546546817822   0.599861063205005 0
ion Te   0.083922427734134   0.583194987995016   0.400699565980811 0
ion Te  -0.001226098701818   0.502447057133795   0.601965625122032 0
ion Te   0.333766938769129   0.583113959194800   0.396159495329480 0
ion Te   0.258546549389250   0.499354375410731   0.599861063205005 0
ion Te   0.583113961766229   0.583113959194800   0.396159495329480 0
ion Te   0.832877444001009   0.583194987995016   0.400699565980811 0
ion Te   0.742093934930177   0.499354375410731   0.599861063205005 0
ion Te   0.083922427734133   0.832877441429581   0.400699565980811 0
ion Te   0.001129193940965   0.749432831608882   0.602023468409915 0
ion Te   0.330923594745487   0.838147670239184   0.397841811769758 0
ion Te   0.258546549389250   0.742093932358749   0.599861063205005 0
ion Te   0.583194990566444   0.832877441429581   0.400699565980811 0
ion Te   0.499354377982159   0.742093932358749   0.599861063205005 0
ion Te   0.833331620767196   0.833331618195767   0.400750728019668 0
ion Te   0.749432834180311   0.749432831608882   0.602023468409915 0


# Forces in Lattice coordinates:
force Ni   0.004708822566514   0.004708822566514  -0.028352728634303 0
force Ni  -0.007661987377429  -0.007661987377422   0.022975742205373 0
force Ni  -0.004708822566514   0.000000000000000  -0.028352728634303 0
force Ni   0.000000000000000   0.011548353475966   0.072625384392741 0
force Ni  -0.004181617920787   0.011503133750756   0.006324900766986 0
force Ni   0.007661987377422   0.000000000000000   0.022975742205373 0
force Ni   0.004181617920785   0.015684751671542   0.006324900766986 0
force Ni   0.000000000000000   0.001779231277947   0.048906269157630 0
force Ni   0.000000000000000  -0.004708822566512  -0.028352728634303 0
force Ni   0.011548353475965   0.000000000000000   0.072625384392741 0
force Ni   0.017232650101513   0.017232650101520  -0.064407903046532 0
force Ni  -0.011548353475966  -0.011548353475966   0.072625384392968 0
force Ni   0.000000000000000   0.074756771954180  -0.002140570938031 0
force Ni   0.002874036552200   0.022742808649164   0.023654141351301 0
force Ni  -0.017232650101516   0.000000000000000  -0.064407903046305 0
force Ni  -0.002874036552200   0.019868772096965   0.023654141351528 0
force Ni   0.011503133750756  -0.004181617920785   0.006324900766986 0
force Ni   0.000000000000000   0.007661987377422   0.022975742205373 0
force Ni   0.074756771954166   0.000000000000000  -0.002140570938486 0
force Ni   0.022742808649166   0.002874036552200   0.023654141351529 0
force Ni  -0.074756771954180  -0.074756771954180  -0.002140570938031 0
force Ni   0.000000000000000   0.000000000000000   0.091661041125715 0
force Ni  -0.011503133750756  -0.015684751671543   0.006324900766986 0
force Ni  -0.022742808649164  -0.019868772096965   0.023654141351529 0
force Ni   0.015684751671542   0.004181617920785   0.006324900766759 0
force Ni   0.001779231277947   0.000000000000000   0.048906269157630 0
force Ni   0.000000000000000  -0.017232650101513  -0.064407903046305 0
force Ni   0.019868772096967  -0.002874036552200   0.023654141351301 0
force Ni  -0.015684751671543  -0.011503133750756   0.006324900766759 0
force Ni  -0.019868772096965  -0.022742808649166   0.023654141351529 0
force Ni   0.000000000000000   0.000000000000000   0.000838555268825 0
force Ni  -0.001779231277947  -0.001779231277949   0.048906269157402 0
force Te   0.010357519348831   0.010357519348832  -0.216930439286249 0
force Te  -0.004659405542711  -0.004659405542714   0.226289639673139 0
force Te  -0.010357519348833   0.000000000000000  -0.216930439286249 0
force Te   0.000000000000000   0.000510695409480   0.236376400470537 0
force Te   0.003099631226740   0.000296519676762  -0.226455232598632 0
force Te   0.004659405542714   0.000000000000000   0.226289639673366 0
force Te  -0.003099631226740  -0.002803111549979  -0.226455232598518 0
force Te   0.000000000000000   0.010925303907734   0.218404200075606 0
force Te   0.000000000000000  -0.010357519348831  -0.216930439286249 0
force Te   0.000510695409480   0.000000000000000   0.236376400470764 0
force Te   0.007031594832752   0.007031594832752  -0.244246985064280 0
force Te  -0.000510695409481  -0.000510695409481   0.236376400470537 0
force Te   0.000000000000000  -0.030816401912459  -0.282250746619453 0
force Te  -0.009939157773794  -0.023286601582615   0.225122171935798 0
force Te  -0.007031594832752   0.000000000000000  -0.244246985064279 0
force Te   0.009939157773798  -0.013347443808818   0.225122171935684 0
force Te   0.000296519676761   0.003099631226740  -0.226455232598632 0
force Te   0.000000000000000   0.004659405542714   0.226289639673366 0
force Te  -0.030816401912458   0.000000000000000  -0.282250746619681 0
force Te  -0.023286601582615  -0.009939157773796   0.225122171935798 0
force Te   0.030816401912459   0.030816401912459  -0.282250746619681 0
force Te  -0.000296519676761   0.002803111549979  -0.226455232598632 0
force Te   0.023286601582611   0.013347443808818   0.225122171935684 0
force Te  -0.002803111549979  -0.003099631226740  -0.226455232598632 0
force Te   0.010925303907734   0.000000000000000   0.218404200075720 0
force Te   0.000000000000000  -0.007031594832752  -0.244246985064279 0
force Te  -0.013347443808816   0.009939157773796   0.225122171935798 0
force Te   0.002803111549979  -0.000296519676761  -0.226455232598518 0
force Te   0.013347443808818   0.023286601582615   0.225122171935685 0
force Te   0.000000000000000   0.000000000000000  -0.224196524336886 0
force Te  -0.010925303907734  -0.010925303907734   0.218404200075606 0

# Energy components:
   A_diel =        0.0546006237421387
   Eewald =    21229.7486157045786968
       EH =    26279.9796046887240664
     Eloc =   -54155.6907331706679543
      Enl =      717.1721942001940988
      Exc =     -793.2339017261145955
 Exc_core =      166.4326123579260752
       KE =      818.9393851542063203
  MuShift =        0.0164120663069574
-------------------------------------
     Etot =    -5736.5812101011088089
       TS =        0.1738055032418157
-------------------------------------
        F =    -5736.7550156043507741
      muN =     -130.3083687629626581
-------------------------------------
        G =    -5606.4466468413884286

IonicMinimize: Iter:   0  G: -5606.446646841388429  |grad|_K:  0.000e+00  t[s]:   2393.77
IonicMinimize: Converged (|grad|_K<1.000000e-04).

#--- Lowdin population analysis ---
# oxidation-state Ni -0.551 -0.565 -0.551 -0.558 -0.541 -0.565 -0.541 -0.561 -0.551 -0.558 -0.543 -0.558 -0.370 -0.557 -0.543 -0.557 -0.541 -0.565 -0.370 -0.557 -0.370 -0.479 -0.541 -0.557 -0.541 -0.561 -0.543 -0.557 -0.541 -0.557 -0.556 -0.561
# oxidation-state Te +0.724 +0.717 +0.724 +0.726 +0.733 +0.717 +0.733 +0.726 +0.724 +0.726 +0.727 +0.726 +0.752 +0.708 +0.727 +0.708 +0.733 +0.717 +0.752 +0.708 +0.752 +0.733 +0.708 +0.733 +0.726 +0.727 +0.708 +0.733 +0.708 +0.724 +0.726


Dumping 'NbTe2.fillings' ... done
Dumping 'NbTe2.wfns' ... done
Dumping 'NbTe2.fluidState' ... done
Dumping 'NbTe2.eigenvals' ... done
End date and time: Sat Jul 11 09:30:04 2020  (Duration: 0-0:40:01.01)
Done!

*************** JDFTx 1.5.0  ***************

Start date and time: Sat Jul 11 09:49:18 2020
Executable jdftx_gpu with command-line: -i Charged.in -o Charged.out
Running on hosts (process indices):  amax (0-2)
Divided in process groups (process indices):  0 (0)  1 (1)  2 (2)
gpuInit: Found compatible cuda device 0 'Tesla K80'
gpuInit: Found compatible cuda device 1 'Tesla K80'
gpuInit: Found compatible cuda device 2 'Tesla K80'
gpuInit: Selected device 0
Resource initialization completed at t[s]:     15.85
Run totals: 3 processes, 24 threads, 3 GPUs


Input parsed successfully to the following command list (including defaults):

basis kpoint-dependent
cache-projectors no
coords-type Lattice
core-overlap-check none
coulomb-interaction Slab 001
coulomb-truncation-embed 0 0 0.5
davidson-band-ratio 1.1
dump End State
dump-name NbTe2.$VAR
elec-cutoff 20 100
elec-eigen-algo Davidson
elec-ex-corr gga-PBE
elec-smearing Gauss 0.0073499
electronic-minimize  \
	dirUpdateScheme      FletcherReeves \
	linminMethod         DirUpdateRecommended \
	nIterations          400 \
	history              15 \
	knormThreshold       0 \
	energyDiffThreshold  1e-08 \
	nEnergyDiff          2 \
	alphaTstart          1 \
	alphaTmin            1e-10 \
	updateTestStepSize   yes \
	alphaTreduceFactor   0.1 \
	alphaTincreaseFactor 3 \
	nAlphaAdjustMax      3 \
	wolfeEnergy          0.0001 \
	wolfeGradient        0.9 \
	fdTest               no
exchange-regularization WignerSeitzTruncated
fluid LinearPCM 298.000000 1.013250
fluid-anion F- 1 MeanFieldLJ \
	epsBulk 1 \
	pMol 0 \
	epsInf 1 \
	Pvap 0 \
	sigmaBulk 0 \
	Rvdw 2.24877 \
	Res 0 \
	tauNuc 343133
fluid-cation Na+ 1 MeanFieldLJ \
	epsBulk 1 \
	pMol 0 \
	epsInf 1 \
	Pvap 0 \
	sigmaBulk 0 \
	Rvdw 2.19208 \
	Res 0 \
	tauNuc 343133
fluid-ex-corr lda-TF lda-PZ
fluid-gummel-loop 10 1.000000e-05
fluid-minimize  \
	dirUpdateScheme      PolakRibiere \
	linminMethod         DirUpdateRecommended \
	nIterations          400 \
	history              15 \
	knormThreshold       1e-11 \
	energyDiffThreshold  0 \
	nEnergyDiff          2 \
	alphaTstart          1 \
	alphaTmin            1e-10 \
	updateTestStepSize   yes \
	alphaTreduceFactor   0.1 \
	alphaTincreaseFactor 3 \
	nAlphaAdjustMax      6 \
	wolfeEnergy          0.0001 \
	wolfeGradient        0.9 \
	fdTest               no
fluid-solvent H2O 55.338 ScalarEOS \
	epsBulk 78.4 \
	pMol 0.92466 \
	epsInf 1.77 \
	Pvap 1.06736e-10 \
	sigmaBulk 4.62e-05 \
	Rvdw 2.61727 \
	Res 1.42 \
	tauNuc 343133 \
	poleEl 15 7 1
forces-output-coords Positions
initial-state NbTe2.$VAR
ion Ni   0.082332499968437   0.082332492968440   0.537577342960231 0
ion Ni  -0.000858591618158  -0.000858591618158   0.465599058143562 0
ion Ni   0.335325006063117   0.082332492968440   0.537577342960231 0
ion Ni   0.248600395239317   0.002799209521366   0.464406785341277 0
ion Ni   0.581502861560250   0.088156287815939   0.538139928735602 0
ion Ni   0.501717183236316  -0.000858591618158   0.465599058143562 0
ion Ni   0.830330817623809   0.088156287815939   0.538139928735602 0
ion Ni   0.749942733866315   0.000114468267364   0.465182599243594 0
ion Ni   0.082332479968442   0.335325000063123   0.537577342960231 0
ion Ni   0.002799211521367   0.248600369239315   0.464406785341277 0
ion Ni   0.332004613822084   0.332004627822086   0.535831799193832 0
ion Ni   0.248600389239316   0.248600369239315   0.464406785341277 0
ion Ni   0.580577717808171   0.338834398383662   0.530503930256892 0
ion Ni   0.497897221939211   0.252671032655287   0.462050791828587 0
ion Ni   0.835980687355839   0.332004627822086   0.535831799193832 0
ion Ni   0.749431738405498   0.252671032655287   0.462050791828587 0
ion Ni   0.088156277815939   0.581502843560248   0.538139928735602 0
ion Ni  -0.000858588618161   0.501717130236315   0.465599058143562 0
ion Ni   0.338834387383658   0.580577750808170   0.530503930256892 0
ion Ni   0.252671077655287   0.497897143939211   0.462050791828587 0
ion Ni   0.580577751808174   0.580577750808170   0.530503930256892 0
ion Ni   0.499999987000002   0.499999946999999   0.459072333229185 0
ion Ni   0.830330737623809   0.581502843560248   0.538139928735602 0
ion Ni   0.749431700405502   0.497897143939211   0.462050791828587 0
ion Ni   0.088156275815938   0.830330795623814   0.538139928735602 0
ion Ni   0.000114453267367   0.749942741866316   0.465182599243594 0
ion Ni   0.332004614822081   0.835980716355838   0.535831799193832 0
ion Ni   0.252671075655287   0.749431720405497   0.462050791828587 0
ion Ni   0.581502842560252   0.830330795623814   0.538139928735602 0
ion Ni   0.497897118939213   0.749431720405497   0.462050791828587 0
ion Ni   0.833329982999999   0.833329980000002   0.538256269745407 0
ion Ni   0.749942719866321   0.749942741866316   0.465182599243594 0
ion Te   0.082073279771015   0.082073272771018   0.399673698308951 0
ion Te  -0.001224394969014  -0.001224394969014   0.601965625122032 0
ion Te   0.335843446457960   0.082073272771018   0.399673698308951 0
ion Te   0.249453176906974   0.001093646186051   0.602003654089030 0
ion Te   0.583193362299249   0.083920776466938   0.400699565980811 0
ion Te   0.502448789938028  -0.001224394969014   0.601965625122032 0
ion Te   0.832875828233810   0.083920776466938   0.400699565980811 0
ion Te   0.749434523913112   0.001130888173769   0.602023468409915 0
ion Te   0.082073259771020   0.335843440457967   0.399673698308951 0
ion Te   0.001093648186052   0.249453150906972   0.602003654089030 0
ion Te   0.330921948144960   0.330921962144962   0.397841811769758 0
ion Te   0.249453170906974   0.249453150906972   0.602003654089030 0
ion Te   0.583112272665700   0.333765288668604   0.396159495329480 0
ion Te   0.499356135548295   0.258548205455387   0.599861063205005 0
ion Te   0.838146018710087   0.330921962144962   0.397841811769758 0
ion Te   0.742095651996314   0.258548205455387   0.599861063205005 0
ion Te   0.083920766466937   0.583193344299247   0.400699565980811 0
ion Te  -0.001224391969017   0.502448736938027   0.601965625122032 0
ion Te   0.333765277668599   0.583112305665699   0.396159495329480 0
ion Te   0.258548250455388   0.499356057548295   0.599861063205005 0
ion Te   0.583112306665703   0.583112305665699   0.396159495329480 0
ion Te   0.832875748233811   0.583193344299247   0.400699565980811 0
ion Te   0.742095613996318   0.499356057548295   0.599861063205005 0
ion Te   0.083920764466937   0.832875806233816   0.400699565980811 0
ion Te   0.001130873173771   0.749434531913113   0.602023468409915 0
ion Te   0.330921949144957   0.838146047710086   0.397841811769758 0
ion Te   0.258548248455387   0.742095633996312   0.599861063205005 0
ion Te   0.583193343299251   0.832875806233816   0.400699565980811 0
ion Te   0.499356032548297   0.742095633996312   0.599861063205005 0
ion Te   0.833329982999999   0.833329980000002   0.400750728019668 0
ion Te   0.749434509913118   0.749434531913113   0.602023468409915 0
ion-species GBRV/$ID_pbe.uspp
ion-width Ecut
ionic-minimize  \
	dirUpdateScheme      L-BFGS \
	linminMethod         DirUpdateRecommended \
	nIterations          0 \
	history              15 \
	knormThreshold       0.0001 \
	energyDiffThreshold  1e-06 \
	nEnergyDiff          2 \
	alphaTstart          1 \
	alphaTmin            1e-10 \
	updateTestStepSize   yes \
	alphaTreduceFactor   0.1 \
	alphaTincreaseFactor 3 \
	nAlphaAdjustMax      3 \
	wolfeEnergy          0.0001 \
	wolfeGradient        0.9 \
	fdTest               no
kpoint   0.000000000000   0.000000000000   0.000000000000  1.00000000000000
kpoint-folding 3 3 1 
latt-move-scale 1 1 1
latt-scale 1 1 1 
lattice Triclinic 28.5693 28.5693 35.2978 90 90 60.0001
lattice-minimize  \
	dirUpdateScheme      L-BFGS \
	linminMethod         DirUpdateRecommended \
	nIterations          0 \
	history              15 \
	knormThreshold       0 \
	energyDiffThreshold  1e-06 \
	nEnergyDiff          2 \
	alphaTstart          1 \
	alphaTmin            1e-10 \
	updateTestStepSize   yes \
	alphaTreduceFactor   0.1 \
	alphaTincreaseFactor 3 \
	nAlphaAdjustMax      3 \
	wolfeEnergy          0.0001 \
	wolfeGradient        0.9 \
	fdTest               no
lcao-params -1 1e-06 0.0073499
pcm-variant CANDLE
spintype no-spin
subspace-rotation-factor 1 yes
symmetries automatic
symmetry-threshold 0.0001
target-mu -0.24475 no




---------- Setting up symmetries ----------

Found 24 point-group symmetries of the bravais lattice
Found 6 space-group symmetries with basis
Applied RMS atom displacement 8.26063e-05 bohrs to make symmetries exact.

---------- Initializing the Grid ----------
R = 
[    28.5693    14.2846          0  ]
[          0    24.7417          0  ]
[          0          0    35.2978  ]
unit cell volume = 24950.4
G =
[   0.219928  -0.126975          0  ]
[          0   0.253951          0  ]
[          0          0   0.178005  ]
Minimum fftbox size, Smin = [  132  132  160  ]
Chosen fftbox size, S = [  140  140  160  ]

---------- Initializing tighter grid for wavefunction operations ----------
R = 
[    28.5693    14.2846          0  ]
[          0    24.7417          0  ]
[          0          0    35.2978  ]
unit cell volume = 24950.4
G =
[   0.219928  -0.126975          0  ]
[          0   0.253951          0  ]
[          0          0   0.178005  ]
Minimum fftbox size, Smin = [  116  116  144  ]
Chosen fftbox size, S = [  120  120  144  ]

---------- Exchange Correlation functional ----------
Initalized PBE GGA exchange.
Initalized PBE GGA correlation.

---------- Setting up pseudopotentials ----------
Width of ionic core gaussian charges (only for fluid interactions / plotting) set to 0.397384

Reading pseudopotential file '/home/guoxy/vasp/jdftx-1.5.0/build/pseudopotentials/GBRV/ni_pbe.uspp':
  Title: Ni.  Created by USPP 7.3.6 on 1-4-15
  Reference state energy: -170.398381.  18 valence electrons in orbitals:
    |300>  occupation: 2  eigenvalue: -4.804705
    |310>  occupation: 6  eigenvalue: -3.347751
    |320>  occupation: 8  eigenvalue: -1.042415
    |400>  occupation: 0  eigenvalue: -0.795539
    |410>  occupation: 0  eigenvalue: -0.551375
  lMax: 2  lLocal: 3  QijEcut: 6.5
  6 projectors sampled on a log grid with 611 points:
    l: 0  eig: -4.804708  rCut: 1.44
    l: 0  eig: -0.795541  rCut: 1.44
    l: 1  eig: -3.347753  rCut: 1.55
    l: 1  eig: 0.500000  rCut: 1.55
    l: 2  eig: -1.042418  rCut: 1.5
    l: 2  eig: -0.450000  rCut: 1.5
  Partial core density with radius 0.65
  Transforming core density to a uniform radial grid of dG=0.02 with 1702 points.
  Transforming local potential to a uniform radial grid of dG=0.02 with 1702 points.
  Transforming nonlocal projectors to a uniform radial grid of dG=0.02 with 432 points.
  Transforming density augmentations to a uniform radial grid of dG=0.02 with 1702 points.
  Transforming atomic orbitals to a uniform radial grid of dG=0.02 with 432 points.
  Core radius for overlap checks: 1.55 bohrs.

Reading pseudopotential file '/home/guoxy/vasp/jdftx-1.5.0/build/pseudopotentials/GBRV/te_pbe.uspp':
  Title: Te.  Created by USPP 7.3.6 on 14-9-2013
  Reference state energy: -13.134220.  6 valence electrons in orbitals:
    |500>  occupation: 2  eigenvalue: -0.555231
    |510>  occupation: 4  eigenvalue: -0.218781
  lMax: 2  lLocal: 2  QijEcut: 5
  5 projectors sampled on a log grid with 723 points:
    l: 0  eig: -0.555229  rCut: 2.1
    l: 0  eig: 1.000000  rCut: 2.1
    l: 1  eig: -0.218780  rCut: 2.1
    l: 1  eig: 1.000000  rCut: 2.1
    l: 2  eig: 1.000000  rCut: 2.6
  Partial core density with radius 1.8
  Transforming core density to a uniform radial grid of dG=0.02 with 1702 points.
  Transforming local potential to a uniform radial grid of dG=0.02 with 1702 points.
  Transforming nonlocal projectors to a uniform radial grid of dG=0.02 with 432 points.
  Transforming density augmentations to a uniform radial grid of dG=0.02 with 1702 points.
  Transforming atomic orbitals to a uniform radial grid of dG=0.02 with 432 points.
  Core radius for overlap checks: 2.60 bohrs.

Initialized 2 species with 63 total atoms.

Folded 1 k-points by 3x3x1 to 9 k-points.

---------- Setting up k-points, bands, fillings ----------
Adding inversion symmetry to k-mesh for non-inversion-symmetric unit cell.
Reduced to 3 k-points under symmetry. 
Computing the number of bands and number of electrons
Reading initial fillings from file NbTe2.fillings.
nElectrons: 760.916783   nBands: 540   nStates: 3

----- Setting up reduced wavefunction bases (one per k-point) -----
average nbasis = 106596.556 , ideal nbasis = 106589.816

---------- Setting up coulomb interaction ----------
Fluid mode embedding: using embedded box, but periodic Coulomb kernel.
(Fluid response is responsible for (approximate) separation between periodic images.)
Setting up double-sized grid for truncated Coulomb potentials:
R = 
[    28.5693    14.2846          0  ]
[          0    24.7417          0  ]
[          0          0    70.5956  ]
unit cell volume = 49900.7
G =
[   0.219928  -0.126975          0  ]
[          0   0.253951          0  ]
[          0          0  0.0890025  ]
Chosen fftbox size, S = [  140  140  320  ]
Integer grid location selected as the embedding center:
   Grid: [  0  0  80  ]
   Lattice: [  0  0  0.5  ]
   Cartesian: [  0  0  17.6489  ]
Constructing Wigner-Seitz cell: 8 faces (6 quadrilaterals, 2 hexagons)
Range-separation parameter for embedded mesh potentials due to point charges: 0.592549 bohrs.

Initializing van der Waals corrections
	NOTE: vdW corrections apply only for interactions with fluid.
	Ni:  C6:  187.33 Eh-a0^6  R0: 2.952 a0
	Te:  C6:  550.54 Eh-a0^6  R0: 3.575 a0

---------- Setting up ewald sum ----------
Optimum gaussian width for ewald sums = 7.363013 bohr.
Real space sum over 405 unit cells with max indices [  4  4  2  ]
Reciprocal space sum over 7425 terms with max indices [  7  7  16  ]

---------- Allocating electronic variables ----------
Initializing wave functions:  reading from 'NbTe2.wfns'
----- createFluidSolver() ----- (Fluid-side solver setup)
   Initializing fluid molecule 'H2O'
     Initializing site 'O'
       Electron density: proportional to exp(-r/0.36935)*erfc((r-0.51523)/0.36823) with norm 6.826
       Charge density: gaussian nuclear width 0.478731 with net site charge 0.826
       Polarizability: cuspless exponential with width 0.32 and norm 3.73
       Hard sphere radius: 2.57003 bohrs
       Positions in reference frame:
         [ +0.000000 +0.000000 +0.000000 ]
     Initializing site 'H'
       Electron density: proportional to exp(-r/0.34641)*erfc((r-0)/0.390882) with norm 0.587
       Charge density: gaussian nuclear width 0.377945 with net site charge -0.413
       Polarizability: cuspless exponential with width 0.39 and norm 3.3
       Positions in reference frame:
         [ +0.000000 -1.441945 +1.122523 ]
         [ +0.000000 +1.441945 +1.122523 ]
     Net charge: 0   dipole magnitude: 0.927204
     Initializing spherical shell mfKernel with radius 2.61727 Bohr
     deltaS corrections:
       site 'O': -7.54299
       site 'H': -6.83917
   Initializing fluid molecule 'Na+'
     Initializing site 'Na'
       Electron density: proportional to exp(-r/0.19682)*erfc((r-0.71491)/0.41314) with norm 8.1383
       Charge density: gaussian nuclear width 0.365347 with net site charge -1
       Hard sphere radius: 1.86327 bohrs
       Positions in reference frame:
         [ +0.000000 +0.000000 +0.000000 ]
     Net charge: -1   dipole magnitude: 0
     Initializing gaussian mfKernel with width: 1.55004 Bohr
     deltaS corrections:
       site 'Na': -22.3555
   Initializing fluid molecule 'F-'
     Initializing site 'F'
       Electron density: proportional to exp(-r/0.38886)*erfc((r-0)/0.438782) with norm 8
       Charge density: gaussian nuclear width 0.374796 with net site charge 1
       Hard sphere radius: 2.39995 bohrs
       Positions in reference frame:
         [ +0.000000 +0.000000 +0.000000 ]
     Net charge: 1   dipole magnitude: 0
     Initializing gaussian mfKernel with width: 1.59012 Bohr
     deltaS corrections:
       site 'F': -9.04335

[...]
	FillingsUpdate:  mu: -0.244750400  nElectrons: 754.401490
	SubspaceRotationAdjust: set factor to 0.174
ElecMinimize: Iter:  34  G: -5550.750451401075225  |grad|_K:  8.124e-08  alpha:  4.322e-01  linmin: -2.210e-07  t[s]:   1321.52
	Linear fluid (dielectric constant: 78.4, screening length: 5.74355 Bohr) occupying 0.750493 of unit cell:	Completed after 2 iterations at t[s]:   1333.03
	Linear fluid (dielectric constant: 78.4, screening length: 5.74355 Bohr) occupying 0.750492 of unit cell:	Completed after 0 iterations at t[s]:   1343.09
	FillingsUpdate:  mu: -0.244750400  nElectrons: 754.400465
	SubspaceRotationAdjust: set factor to 0.178
ElecMinimize: Iter:  35  G: -5550.750451486533166  |grad|_K:  1.515e-07  alpha:  1.593e-01  linmin:  5.719e-05  t[s]:   1355.22
	Linear fluid (dielectric constant: 78.4, screening length: 5.74355 Bohr) occupying 0.750492 of unit cell:	Completed after 2 iterations at t[s]:   1367.43
	Linear fluid (dielectric constant: 78.4, screening length: 5.74355 Bohr) occupying 0.750492 of unit cell:	Completed after 0 iterations at t[s]:   1377.08
	FillingsUpdate:  mu: -0.244750400  nElectrons: 754.399417
	SubspaceRotationAdjust: set factor to 0.213
ElecMinimize: Iter:  36  G: -5550.750451619212072  |grad|_K:  9.923e-08  alpha:  5.390e-02  linmin:  3.657e-05  t[s]:   1389.06
	Linear fluid (dielectric constant: 78.4, screening length: 5.74355 Bohr) occupying 0.750492 of unit cell:	Completed after 0 iterations at t[s]:   1399.90
ElecMinimize: 	Predicted alpha/alphaT>3.000000, increasing alphaT to 1.616884e-01.
	Linear fluid (dielectric constant: 78.4, screening length: 5.74355 Bohr) occupying 0.750492 of unit cell:	Completed after 0 iterations at t[s]:   1410.28
	Linear fluid (dielectric constant: 78.4, screening length: 5.74355 Bohr) occupying 0.750492 of unit cell:	Completed after 0 iterations at t[s]:   1419.88
	FillingsUpdate:  mu: -0.244750400  nElectrons: 754.401066
	SubspaceRotationAdjust: set factor to 0.284
ElecMinimize: Iter:  37  G: -5550.750451946427347  |grad|_K:  1.060e-07  alpha:  2.082e-01  linmin: -2.848e-05  t[s]:   1431.36
	Linear fluid (dielectric constant: 78.4, screening length: 5.74355 Bohr) occupying 0.750491 of unit cell:	Completed after 3 iterations at t[s]:   1443.50
	Linear fluid (dielectric constant: 78.4, screening length: 5.74355 Bohr) occupying 0.750492 of unit cell:	Completed after 2 iterations at t[s]:   1453.80
ElecMinimize: 	Step increased G by 2.191355e-07, reducing alpha to 4.940988e-03.
	Linear fluid (dielectric constant: 78.4, screening length: 5.74355 Bohr) occupying 0.750492 of unit cell:	Completed after 0 iterations at t[s]:   1494.76
ElecMinimize: 	Step increased G by 1.285844e-07, reducing alpha to 4.940988e-04.
	Linear fluid (dielectric constant: 78.4, screening length: 5.74355 Bohr) occupying 0.750492 of unit cell:	Completed after 0 iterations at t[s]:   1514.57
ElecMinimize: 	Step increased G by 1.211365e-07, reducing alpha to 4.940988e-05.
ElecMinimize: 	Step failed to reduce G after 3 attempts. Quitting step.
ElecMinimize: 	Undoing step.
	Linear fluid (dielectric constant: 78.4, screening length: 5.74355 Bohr) occupying 0.750492 of unit cell:	Completed after 0 iterations at t[s]:   1543.77
ElecMinimize: 	Step failed: resetting search direction.
	FillingsUpdate:  mu: -0.244750400  nElectrons: 754.401077
	SubspaceRotationAdjust: set factor to 0.236
ElecMinimize: Iter:  38  G: -5550.750451825320852  |grad|_K:  1.357e-07  alpha:  4.941e-05
	Linear fluid (dielectric constant: 78.4, screening length: 5.74355 Bohr) occupying 0.750492 of unit cell:	Completed after 2 iterations at t[s]:   1567.24
	Linear fluid (dielectric constant: 78.4, screening length: 5.74355 Bohr) occupying 0.750492 of unit cell:	Completed after 2 iterations at t[s]:   1577.62
	FillingsUpdate:  mu: -0.244750400  nElectrons: 754.398599
	SubspaceRotationAdjust: set factor to 0.13
ElecMinimize: Iter:  39  G: -5550.750451887964118  |grad|_K:  1.044e-07  alpha:  7.693e-02  linmin:  3.674e-04  t[s]:   1606.13
	Linear fluid (dielectric constant: 78.4, screening length: 5.74355 Bohr) occupying 0.750491 of unit cell:	Completed after 0 iterations at t[s]:   1627.46
	Linear fluid (dielectric constant: 78.4, screening length: 5.74355 Bohr) occupying 0.750491 of unit cell:	Completed after 0 iterations at t[s]:   1655.27
	FillingsUpdate:  mu: -0.244750400  nElectrons: 754.399688
	SubspaceRotationAdjust: set factor to 0.132
ElecMinimize: Iter:  40  G: -5550.750452134589978  |grad|_K:  8.668e-08  alpha:  1.926e-01  linmin:  5.608e-06  t[s]:   1683.07
	Linear fluid (dielectric constant: 78.4, screening length: 5.74355 Bohr) occupying 0.750490 of unit cell:	Completed after 2 iterations at t[s]:   1711.74
	Linear fluid (dielectric constant: 78.4, screening length: 5.74355 Bohr) occupying 0.750491 of unit cell:	Completed after 0 iterations at t[s]:   1733.91
	FillingsUpdate:  mu: -0.244750400  nElectrons: 754.400852
	SubspaceRotationAdjust: set factor to 0.103
ElecMinimize: Iter:  41  G: -5550.750452219705039  |grad|_K:  1.263e-07  alpha:  6.780e-02  linmin:  2.111e-04  t[s]:   1746.40
	Linear fluid (dielectric constant: 78.4, screening length: 5.74355 Bohr) occupying 0.750490 of unit cell:	Completed after 0 iterations at t[s]:   1757.50
	Linear fluid (dielectric constant: 78.4, screening length: 5.74355 Bohr) occupying 0.750490 of unit cell:	Completed after 0 iterations at t[s]:   1767.76
	FillingsUpdate:  mu: -0.244750400  nElectrons: 754.401657
	SubspaceRotationAdjust: set factor to 0.117
ElecMinimize: Iter:  42  G: -5550.750452241192761  |grad|_K:  1.126e-07  alpha:  4.595e-02  linmin:  9.367e-10  t[s]:   1780.87
	Linear fluid (dielectric constant: 78.4, screening length: 5.74355 Bohr) occupying 0.750490 of unit cell:	Completed after 0 iterations at t[s]:   1792.28
ElecMinimize: 	Predicted alpha/alphaT>3.000000, increasing alphaT to 1.378433e-01.
	Linear fluid (dielectric constant: 78.4, screening length: 5.74355 Bohr) occupying 0.750489 of unit cell:	Completed after 1 iterations at t[s]:   1803.00
	Linear fluid (dielectric constant: 78.4, screening length: 5.74355 Bohr) occupying 0.750490 of unit cell:	Completed after 0 iterations at t[s]:   1813.67
	FillingsUpdate:  mu: -0.244750400  nElectrons: 754.401611
	SubspaceRotationAdjust: set factor to 0.157
ElecMinimize: Iter:  43  G: -5550.750452302790109  |grad|_K:  6.521e-08  alpha:  5.585e-02  linmin:  9.820e-05  t[s]:   1826.71
	Linear fluid (dielectric constant: 78.4, screening length: 5.74355 Bohr) occupying 0.750490 of unit cell:	Completed after 0 iterations at t[s]:   1837.72
ElecMinimize: 	Predicted alpha/alphaT>3.000000, increasing alphaT to 1.675578e-01.
	Linear fluid (dielectric constant: 78.4, screening length: 5.74355 Bohr) occupying 0.750490 of unit cell:	Completed after 0 iterations at t[s]:   1848.61
	Linear fluid (dielectric constant: 78.4, screening length: 5.74355 Bohr) occupying 0.750489 of unit cell:	Completed after 0 iterations at t[s]:   1860.37
	FillingsUpdate:  mu: -0.244750400  nElectrons: 754.400478
	SubspaceRotationAdjust: set factor to 0.183
ElecMinimize: Iter:  44  G: -5550.750452446447525  |grad|_K:  7.078e-08  alpha:  2.841e-01  linmin: -9.740e-08  t[s]:   1873.64
	Linear fluid (dielectric constant: 78.4, screening length: 5.74355 Bohr) occupying 0.750488 of unit cell:	Completed after 3 iterations at t[s]:   1885.12
	Linear fluid (dielectric constant: 78.4, screening length: 5.74355 Bohr) occupying 0.750489 of unit cell:	Completed after 0 iterations at t[s]:   1895.46
	FillingsUpdate:  mu: -0.244750400  nElectrons: 754.399863
	SubspaceRotationAdjust: set factor to 0.167
ElecMinimize: Iter:  45  G: -5550.750452496231446  |grad|_K:  1.428e-07  alpha:  6.440e-02  linmin:  1.210e-04  t[s]:   1908.02
ElecMinimize: 	Bad step direction: g.d > 0.
ElecMinimize: 	Undoing step.
	Linear fluid (dielectric constant: 78.4, screening length: 5.74355 Bohr) occupying 0.750489 of unit cell:	Completed after 0 iterations at t[s]:   1920.62
ElecMinimize: 	Step failed: resetting search direction.
	FillingsUpdate:  mu: -0.244750400  nElectrons: 754.399863
	SubspaceRotationAdjust: set factor to 0.233
ElecMinimize: Iter:  46  G: -5550.750452496215985  |grad|_K:  1.407e-07  alpha:  0.000e+00
	Linear fluid (dielectric constant: 78.4, screening length: 5.74355 Bohr) occupying 0.750489 of unit cell:	Completed after 1 iterations at t[s]:   1948.22
	Linear fluid (dielectric constant: 78.4, screening length: 5.74355 Bohr) occupying 0.750489 of unit cell:	Completed after 0 iterations at t[s]:   1959.25
ElecMinimize: 	Step increased G by 9.115502e-08, reducing alpha to 2.742616e-03.
	Linear fluid (dielectric constant: 78.4, screening length: 5.74355 Bohr) occupying 0.750489 of unit cell:	Completed after 0 iterations at t[s]:   1981.27
ElecMinimize: 	Step increased G by 1.105436e-07, reducing alpha to 2.742616e-04.
	Linear fluid (dielectric constant: 78.4, screening length: 5.74355 Bohr) occupying 0.750489 of unit cell:	Completed after 0 iterations at t[s]:   2003.04
ElecMinimize: 	Step increased G by 1.129147e-07, reducing alpha to 2.742616e-05.
ElecMinimize: 	Step failed to reduce G after 3 attempts. Quitting step.
ElecMinimize: 	Undoing step.
	Linear fluid (dielectric constant: 78.4, screening length: 5.74355 Bohr) occupying 0.750489 of unit cell:	Completed after 0 iterations at t[s]:   2024.93
ElecMinimize: 	Step failed along negative gradient direction.
ElecMinimize: Probably at roundoff error limit. (Stopping)
Setting wave functions to eigenvectors of Hamiltonian

# Ionic positions in lattice coordinates:
ion Ni   0.082334118568968   0.082334115997540   0.537577342960231 0
ion Ni  -0.000860295350962  -0.000860297922391   0.465599058143562 0
ion Ni   0.335326625163650   0.082334115997540   0.537577342960231 0
ion Ni   0.248598677006512   0.002797505717135   0.464406785341277 0
ion Ni   0.581504489827445   0.088157936511706   0.538139928735602 0
ion Ni   0.501715453003511  -0.000860297922391   0.465599058143562 0
ion Ni   0.830332433391007   0.088157936511706   0.538139928735602 0
ion Ni   0.749941044133513   0.000112771463132   0.465182599243594 0
ion Ni   0.082334118568968   0.335326622592222   0.537577342960231 0
ion Ni   0.002797508288563   0.248598674435083   0.464406785341277 0
ion Ni   0.332006260422611   0.332006257851183   0.535831799193832 0
ion Ni   0.248598677006512   0.248598674435083   0.464406785341277 0
ion Ni   0.580579406908700   0.338836045912759   0.530503930256892 0
ion Ni   0.497895464373075   0.252669374017721   0.462050791828587 0
ion Ni   0.835982341456365   0.332006257851183   0.535831799193832 0
ion Ni   0.749430021339362   0.252669374017721   0.462050791828587 0
ion Ni   0.088157939083134   0.581504487256017   0.538139928735602 0
ion Ni  -0.000860295350962   0.501715450432083   0.465599058143562 0
ion Ni   0.338836048484187   0.580579404337271   0.530503930256892 0
ion Ni   0.252669376589150   0.497895461801647   0.462050791828587 0
ion Ni   0.580579406908700   0.580579404337271   0.530503930256892 0
ion Ni   0.499998287433862   0.499998284862434   0.459072333229185 0
ion Ni   0.830332433391007   0.581504487256017   0.538139928735602 0
ion Ni   0.749430021339362   0.497895461801647   0.462050791828587 0
ion Ni   0.088157939083134   0.830332430819579   0.538139928735602 0
ion Ni   0.000112774034560   0.749941041562085   0.465182599243594 0
ion Ni   0.332006260422611   0.835982338884936   0.535831799193832 0
ion Ni   0.252669376589150   0.749430018767933   0.462050791828587 0
ion Ni   0.581504489827445   0.830332430819579   0.538139928735602 0
ion Ni   0.497895464373075   0.749430018767933   0.462050791828587 0
ion Ni   0.833331620767196   0.833331618195767   0.538256269745407 0
ion Ni   0.749941044133513   0.749941041562085   0.465182599243594 0
ion Te   0.082074898371546   0.082074895800118   0.399673698308951 0
ion Te  -0.001226098701818  -0.001226101273247   0.601965625122032 0
ion Te   0.335845065558494   0.082074895800118   0.399673698308951 0
ion Te   0.249451458674169   0.001091942381820   0.602003654089030 0
ion Te   0.583194990566444   0.083922425162705   0.400699565980811 0
ion Te   0.502447059705223  -0.001226101273247   0.601965625122032 0
ion Te   0.832877444001009   0.083922425162705   0.400699565980811 0
ion Te   0.749432834180311   0.001129191369537   0.602023468409915 0
ion Te   0.082074898371546   0.335845062987065   0.399673698308951 0
ion Te   0.001091944953248   0.249451456102741   0.602003654089030 0
ion Te   0.330923594745487   0.330923592174059   0.397841811769758 0
ion Te   0.249451458674169   0.249451456102741   0.602003654089030 0
ion Te   0.583113961766229   0.333766936197701   0.396159495329480 0
ion Te   0.499354377982159   0.258546546817822   0.599861063205005 0
ion Te   0.838147672810613   0.330923592174059   0.397841811769758 0
ion Te   0.742093934930177   0.258546546817822   0.599861063205005 0
ion Te   0.083922427734134   0.583194987995016   0.400699565980811 0
ion Te  -0.001226098701818   0.502447057133795   0.601965625122032 0
ion Te   0.333766938769129   0.583113959194800   0.396159495329480 0
ion Te   0.258546549389250   0.499354375410731   0.599861063205005 0
ion Te   0.583113961766229   0.583113959194800   0.396159495329480 0
ion Te   0.832877444001009   0.583194987995016   0.400699565980811 0
ion Te   0.742093934930177   0.499354375410731   0.599861063205005 0
ion Te   0.083922427734133   0.832877441429581   0.400699565980811 0
ion Te   0.001129193940965   0.749432831608882   0.602023468409915 0
ion Te   0.330923594745487   0.838147670239184   0.397841811769758 0
ion Te   0.258546549389250   0.742093932358749   0.599861063205005 0
ion Te   0.583194990566444   0.832877441429581   0.400699565980811 0
ion Te   0.499354377982159   0.742093932358749   0.599861063205005 0
ion Te   0.833331620767196   0.833331618195767   0.400750728019668 0
ion Te   0.749432834180311   0.749432831608882   0.602023468409915 0


# Forces in Lattice coordinates:
force Ni   0.000281374444334   0.000281374444334   0.007879816444853 0
force Ni  -0.013635057805222  -0.013635057805215  -0.017262060420907 0
force Ni  -0.000281374444334   0.000000000000000   0.007879816444398 0
force Ni   0.000000000000000   0.013124545506569   0.039316120776995 0
force Ni  -0.008282705390886   0.009296798055579   0.046457183331748 0
force Ni   0.013635057805215   0.000000000000000  -0.017262060421134 0
force Ni   0.008282705390885   0.017579503446464   0.046457183331748 0
force Ni   0.000000000000000  -0.001671842483112   0.015050070561062 0
force Ni   0.000000000000000  -0.000281374444333   0.007879816444853 0
force Ni   0.013124545506568   0.000000000000000   0.039316120776768 0
force Ni   0.026855395657890   0.026855395657894  -0.026281634240174 0
force Ni  -0.013124545506569  -0.013124545506569   0.039316120776995 0
force Ni   0.000000000000000   0.096726682183348   0.020908993557445 0
force Ni   0.002991598877722   0.026433596303339  -0.004865699382491 0
force Ni  -0.026855395657890   0.000000000000000  -0.026281634240174 0
force Ni  -0.002991598877721   0.023441997425621  -0.004865699382037 0
force Ni   0.009296798055579  -0.008282705390886   0.046457183332203 0
force Ni   0.000000000000000   0.013635057805215  -0.017262060421134 0
force Ni   0.096726682183334   0.000000000000000   0.020908993557217 0
force Ni   0.026433596303341   0.002991598877721  -0.004865699382036 0
force Ni  -0.096726682183334  -0.096726682183348   0.020908993557672 0
force Ni   0.000000000000000   0.000000000000000   0.011441932812108 0
force Ni  -0.009296798055579  -0.017579503446465   0.046457183331748 0
force Ni  -0.026433596303341  -0.023441997425617  -0.004865699382264 0
force Ni   0.017579503446464   0.008282705390885   0.046457183331521 0
force Ni  -0.001671842483111   0.000000000000000   0.015050070561062 0
force Ni   0.000000000000000  -0.026855395657890  -0.026281634240174 0
force Ni   0.023441997425617  -0.002991598877721  -0.004865699382037 0
force Ni  -0.017579503446464  -0.009296798055576   0.046457183331975 0
force Ni  -0.023441997425617  -0.026433596303339  -0.004865699382491 0
force Ni   0.000000000000000   0.000000000000000   0.029770349289963 0
force Ni   0.001671842483112   0.001671842483111   0.015050070560607 0
force Te   0.008011134754575   0.008011134754576  -0.067987576090421 0
force Te  -0.004441315651003  -0.004441315651005   0.066940846709006 0
force Te  -0.008011134754576   0.000000000000000  -0.067987576090421 0
force Te   0.000000000000000   0.005288568085448   0.099702186363858 0
force Te   0.001838283789427   0.008660270843261  -0.071658814444108 0
force Te   0.004441315651005   0.000000000000000   0.066940846709006 0
force Te  -0.001838283789426   0.006821987053834  -0.071658814443881 0
force Te   0.000000000000000   0.017896665727894   0.080690450571655 0
force Te   0.000000000000000  -0.008011134754575  -0.067987576090422 0
force Te   0.005288568085447   0.000000000000000   0.099702186364086 0
force Te   0.009335033292866   0.009335033292866  -0.104269597240826 0
force Te  -0.005288568085449  -0.005288568085448   0.099702186363859 0
force Te   0.000000000000000  -0.026809204592950  -0.170765670394031 0
force Te  -0.008737346872159  -0.043823940776126   0.067537361045164 0
force Te  -0.009335033292866   0.000000000000000  -0.104269597240826 0
force Te   0.008737346872159  -0.035086593903966   0.067537361045164 0
force Te   0.008660270843258   0.001838283789427  -0.071658814443995 0
force Te   0.000000000000000   0.004441315651005   0.066940846709006 0
force Te  -0.026809204592950   0.000000000000000  -0.170765670393803 0
force Te  -0.043823940776122  -0.008737346872162   0.067537361045164 0
force Te   0.026809204592952   0.026809204592950  -0.170765670393803 0
force Te  -0.008660270843260  -0.006821987053834  -0.071658814443995 0
force Te   0.043823940776122   0.035086593903965   0.067537361045164 0
force Te   0.006821987053833  -0.001838283789427  -0.071658814443995 0
force Te   0.017896665727894   0.000000000000000   0.080690450571655 0
force Te   0.000000000000000  -0.009335033292866  -0.104269597240940 0
force Te  -0.035086593903965   0.008737346872160   0.067537361045164 0
force Te  -0.006821987053834  -0.008660270843258  -0.071658814444108 0
force Te   0.035086593903964   0.043823940776126   0.067537361044936 0
force Te   0.000000000000000   0.000000000000000  -0.066309872609996 0
force Te  -0.017896665727894  -0.017896665727894   0.080690450571655 0

# Energy components:
   A_diel =       -0.8963290806166575
   Eewald =    21229.7486157045786968
       EH =    25993.3772618545481237
     Eloc =   -53867.3500447930127848
      Enl =      717.3305479549202346
      Exc =     -791.4099661887828461
 Exc_core =      166.4326123579260752
       KE =      817.4326297141831219
  MuShift =        0.1151513922716081
-------------------------------------
     Etot =    -5735.2195210839818174
       TS =        0.1705998691478327
-------------------------------------
        F =    -5735.3901209531295535
      muN =     -184.6396685698595945
-------------------------------------
        G =    -5550.7504523832703853

IonicMinimize: Iter:   0  G: -5550.750452383270385  |grad|_K:  0.000e+00  t[s]:   2056.41
IonicMinimize: Converged (|grad|_K<1.000000e-04).

#--- Lowdin population analysis ---
# oxidation-state Ni -0.558 -0.573 -0.558 -0.567 -0.548 -0.573 -0.548 -0.567 -0.558 -0.567 -0.551 -0.567 -0.345 -0.564 -0.551 -0.564 -0.548 -0.573 -0.345 -0.564 -0.345 -0.477 -0.548 -0.564 -0.548 -0.567 -0.551 -0.564 -0.548 -0.564 -0.562 -0.567
# oxidation-state Te +0.941 +0.942 +0.941 +0.948 +0.948 +0.942 +0.948 +0.946 +0.941 +0.948 +0.947 +0.948 +0.972 +0.943 +0.947 +0.943 +0.948 +0.942 +0.972 +0.943 +0.972 +0.948 +0.943 +0.948 +0.946 +0.947 +0.943 +0.948 +0.943 +0.943 +0.946


Dumping 'NbTe2.fillings' ... done
Dumping 'NbTe2.wfns' ... done
Dumping 'NbTe2.fluidState' ... done
Dumping 'NbTe2.eigenvals' ... done
End date and time: Sat Jul 11 10:23:43 2020  (Duration: 0-0:34:24.87)
Done!
