
*************** JDFTx 1.5.0  ***************

Start date and time: Thu Jul  2 17:48:18 2020
Executable jdftx_gpu with command-line: -i Neutral.in -o Neutral.out
Running on hosts (process indices):  amax (0)
Divided in process groups (process indices):  0 (0)
gpuInit: Found compatible cuda device 0 'Tesla K80'
gpuInit: Selected device 0
Resource initialization completed at t[s]:     11.71
Run totals: 1 processes, 24 threads, 1 GPUs


Input parsed successfully to the following command list (including defaults):

basis kpoint-dependent
cache-projectors no
coords-type Lattice
core-overlap-check none
coulomb-interaction Slab 001
coulomb-truncation-embed 0 0 0.5
davidson-band-ratio 1.1
dump End State
dump-name NbTe2.$VAR
elec-cutoff 20 100
elec-eigen-algo Davidson
elec-ex-corr gga-PBE
elec-smearing Gauss 0.0073499
electronic-minimize  \
	dirUpdateScheme      FletcherReeves \
	linminMethod         DirUpdateRecommended \
	nIterations          100 \
	history              15 \
	knormThreshold       0 \
	energyDiffThreshold  1e-08 \
	nEnergyDiff          2 \
	alphaTstart          1 \
	alphaTmin            1e-10 \
	updateTestStepSize   yes \
	alphaTreduceFactor   0.1 \
	alphaTincreaseFactor 3 \
	nAlphaAdjustMax      3 \
	wolfeEnergy          0.0001 \
	wolfeGradient        0.9 \
	fdTest               no
electronic-scf  \
	nIterations	500 \
	energyDiffThreshold	1e-08 \
	residualThreshold	1e-07 \
	mixFraction	0.5 \
	qMetric	0.8 \
	history	10 \
	nEigSteps	2 \
	eigDiffThreshold	1e-08 \
	mixedVariable	Density \
	qKerker	0.8 \
	qKappa	-1 \
	verbose	no \
	mixFractionMag	1.5
exchange-regularization WignerSeitzTruncated
fluid LinearPCM 298.000000 1.013250
fluid-anion F- 1 MeanFieldLJ \
	epsBulk 1 \
	pMol 0 \
	epsInf 1 \
	Pvap 0 \
	sigmaBulk 0 \
	Rvdw 2.24877 \
	Res 0 \
	tauNuc 343133
fluid-cation Na+ 1 MeanFieldLJ \
	epsBulk 1 \
	pMol 0 \
	epsInf 1 \
	Pvap 0 \
	sigmaBulk 0 \
	Rvdw 2.19208 \
	Res 0 \
	tauNuc 343133
fluid-ex-corr lda-TF lda-PZ
fluid-gummel-loop 10 1.000000e-05
fluid-minimize  \
	dirUpdateScheme      PolakRibiere \
	linminMethod         DirUpdateRecommended \
	nIterations          400 \
	history              15 \
	knormThreshold       1e-11 \
	energyDiffThreshold  0 \
	nEnergyDiff          2 \
	alphaTstart          1 \
	alphaTmin            1e-10 \
	updateTestStepSize   yes \
	alphaTreduceFactor   0.1 \
	alphaTincreaseFactor 3 \
	nAlphaAdjustMax      6 \
	wolfeEnergy          0.0001 \
	wolfeGradient        0.9 \
	fdTest               no
fluid-solvent H2O 55.338 ScalarEOS \
	epsBulk 78.4 \
	pMol 0.92466 \
	epsInf 1.77 \
	Pvap 1.06736e-10 \
	sigmaBulk 4.62e-05 \
	Rvdw 2.61727 \
	Res 1.42 \
	tauNuc 343133 \
	poleEl 15 7 1
forces-output-coords Positions
initial-state NbTe2.$VAR
ion Fe   0.443570855594305   0.134081029029869   0.496272446890887 0
ion Fe   0.389840741501773   0.285678985924389   0.496419513640474 0
ion Fe   0.345088979142710   0.437846737266489   0.504184120016496 0
ion Fe   0.291390448177145   0.089407070151061   0.504153074183008 0
ion Fe   0.041399828375824   0.339408116580724   0.496477978832848 0
ion Fe   0.095083637769974   0.187832640748525   0.496402941576153 0
ion Fe   0.139857933426665   0.035673968896712   0.504257183261988 0
ion Fe   0.193531125781051   0.384054133415822   0.504293138260217 0
ion Fe   0.943570855594305   0.134081029029869   0.496272446890887 0
ion Fe   0.889840711501770   0.285678985924389   0.496419513640474 0
ion Fe   0.845089039142708   0.437846737266489   0.504184120016496 0
ion Fe   0.791390448177145   0.089407070151061   0.504153074183008 0
ion Fe   0.541399831375821   0.339408116580724   0.496477978832848 0
ion Fe   0.595083591769978   0.187832640748525   0.496402941576153 0
ion Fe   0.639857933426665   0.035673968896712   0.504257183261988 0
ion Fe   0.693531125781051   0.384054133415822   0.504293138260217 0
ion Fe   0.443570855594305   0.634081044029867   0.496272446890887 0
ion Fe   0.389840741501773   0.785678955924394   0.496419513640474 0
ion Fe   0.345088979142710   0.937846737266489   0.504184120016496 0
ion Fe   0.291390448177145   0.589397027151065   0.504153074183008 0
ion Fe   0.041399828375824   0.839408177580725   0.496477978832848 0
ion Fe   0.095083637769974   0.687832610748522   0.496402941576153 0
ion Fe   0.139857933426665   0.535673972896712   0.504257183261988 0
ion Fe   0.193531125781051   0.884054163415825   0.504293138260217 0
ion Fe   0.943570855594305   0.634081044029867   0.496272446890887 0
ion Fe   0.889840711501770   0.785678955924394   0.496419513640474 0
ion Fe   0.845089039142708   0.937846737266489   0.504184120016496 0
ion Fe   0.791390448177145   0.589397027151065   0.504153074183008 0
ion Fe   0.541399831375821   0.839408177580725   0.496477978832848 0
ion Fe   0.595083591769978   0.687832610748522   0.496402941576153 0
ion Fe   0.639857933426665   0.535673972896712   0.504257183261988 0
ion Fe   0.693531125781051   0.884054163415825   0.504293138260217 0
ion S   0.492428996495577   0.236709528099324   0.567215326586788 0
ion S   0.392187126583552   0.040715423469051   0.572044460393122 0
ion S   0.342789842950302   0.182876732310522   0.428436451485032 0
ion S   0.296403943170886   0.337054280104969   0.572112399552902 0
ion S   0.242425233326110   0.486702222113599   0.433416892059584 0
ion S   0.046455875614726   0.086976190806401   0.428520765842980 0
ion S   0.092851912537426   0.432866676528298   0.572211483670687 0
ion S   0.142101918642684   0.290731602998514   0.428498381559591 0
ion S   0.188582680111754   0.136507600668149   0.572050431122024 0
ion S   0.438578888797541   0.386456999887562   0.428563009065224 0
ion S   0.992428996495577   0.236709528099324   0.567215326586788 0
ion S   0.892187126583552   0.040715423469051   0.572044460393122 0
ion S   0.842789812950299   0.182876732310522   0.428436451485032 0
ion S   0.796403882170884   0.337054280104969   0.572112399552902 0
ion S   0.742425217326109   0.486702222113599   0.433416892059584 0
ion S   0.546455860614729   0.086976190806401   0.428520765842980 0
ion S   0.592851920537427   0.432866676528298   0.572211483670687 0
ion S   0.642101903642687   0.290731602998514   0.428498381559591 0
ion S   0.688582665111749   0.136507600668149   0.572050431122024 0
ion S   0.938578949797542   0.386456999887562   0.428563009065224 0
ion S   0.492428996495577   0.736709513099326   0.567215326586788 0
ion S   0.392187126583552   0.540715431469052   0.572044460393122 0
ion S   0.342789842950302   0.682876701310523   0.428436451485032 0
ion S   0.296403943170886   0.837054280104969   0.572112399552902 0
ion S   0.242425233326110   0.986702192113603   0.433416892059584 0
ion S   0.046455875614726   0.586976190806401   0.428520765842980 0
ion S   0.092851912537426   0.932866676528298   0.572211483670687 0
ion S   0.142101918642684   0.790731572998518   0.428498381559591 0
ion S   0.188582680111754   0.636507600668149   0.572050431122024 0
ion S   0.438578888797541   0.886456999887563   0.428563009065224 0
ion S   0.992428996495577   0.736709513099326   0.567215326586788 0
ion S   0.892187126583552   0.540715431469052   0.572044460393122 0
ion S   0.842789812950299   0.682876701310523   0.428436451485032 0
ion S   0.796403882170884   0.837054280104969   0.572112399552902 0
ion S   0.742425217326109   0.986702192113603   0.433416892059584 0
ion S   0.546455860614729   0.586976190806401   0.428520765842980 0
ion S   0.592851920537427   0.932866676528298   0.572211483670687 0
ion S   0.642101903642687   0.790731572998518   0.428498381559591 0
ion S   0.688582665111749   0.636507600668149   0.572050431122024 0
ion S   0.938578949797542   0.886456999887563   0.428563009065224 0
ion-species GBRV/$ID_pbe.uspp
ion-width Ecut
ionic-minimize  \
	dirUpdateScheme      L-BFGS \
	linminMethod         DirUpdateRecommended \
	nIterations          0 \
	history              15 \
	knormThreshold       0.0001 \
	energyDiffThreshold  1e-06 \
	nEnergyDiff          2 \
	alphaTstart          1 \
	alphaTmin            1e-10 \
	updateTestStepSize   yes \
	alphaTreduceFactor   0.1 \
	alphaTincreaseFactor 3 \
	nAlphaAdjustMax      3 \
	wolfeEnergy          0.0001 \
	wolfeGradient        0.9 \
	fdTest               no
kpoint   0.000000000000   0.000000000000   0.000000000000  1.00000000000000
kpoint-folding 2 2 1 
latt-move-scale 1 1 1
latt-scale 1 1 1 
lattice Triclinic 29.7808 29.7664 33.1356 90 90 90
lattice-minimize  \
	dirUpdateScheme      L-BFGS \
	linminMethod         DirUpdateRecommended \
	nIterations          0 \
	history              15 \
	knormThreshold       0 \
	energyDiffThreshold  1e-06 \
	nEnergyDiff          2 \
	alphaTstart          1 \
	alphaTmin            1e-10 \
	updateTestStepSize   yes \
	alphaTreduceFactor   0.1 \
	alphaTincreaseFactor 3 \
	nAlphaAdjustMax      3 \
	wolfeEnergy          0.0001 \
	wolfeGradient        0.9 \
	fdTest               no
lcao-params -1 1e-06 0.0073499
pcm-variant CANDLE
spintype no-spin
subspace-rotation-factor 1 yes
symmetries automatic
symmetry-threshold 0.0001



---------- Setting up symmetries ----------

Found 8 point-group symmetries of the bravais lattice
Found 4 space-group symmetries with basis
Applied RMS atom displacement 3.52354e-05 bohrs to make symmetries exact.

---------- Initializing the Grid ----------
R = 
[    29.7808          0          0  ]
[          0    29.7664          0  ]
[          0          0    33.1356  ]
unit cell volume = 29373.6
G =
[   0.210981          0          0  ]
[          0   0.211083          0  ]
[          0          0    0.18962  ]
Minimum fftbox size, Smin = [  136  136  152  ]
Chosen fftbox size, S = [  140  140  160  ]

---------- Initializing tighter grid for wavefunction operations ----------
R = 
[    29.7808          0          0  ]
[          0    29.7664          0  ]
[          0          0    33.1356  ]
unit cell volume = 29373.6
G =
[   0.210981          0          0  ]
[          0   0.211083          0  ]
[          0          0    0.18962  ]
Minimum fftbox size, Smin = [  120  120  136  ]
Chosen fftbox size, S = [  120  120  140  ]

---------- Exchange Correlation functional ----------
Initalized PBE GGA exchange.
Initalized PBE GGA correlation.

---------- Setting up pseudopotentials ----------
Width of ionic core gaussian charges (only for fluid interactions / plotting) set to 0.397384

Reading pseudopotential file '/home/guoxy/vasp/jdftx-1.5.0/build/pseudopotentials/GBRV/fe_pbe.uspp':
  Title: Fe.  Created by USPP 7.3.6 on 15-6-15
  Reference state energy: -124.316937.  16 valence electrons in orbitals:
    |300>  occupation: 2  eigenvalue: -4.008817
    |310>  occupation: 6  eigenvalue: -2.753096
    |320>  occupation: 5  eigenvalue: -0.791264
    |400>  occupation: 2  eigenvalue: -0.516384
    |410>  occupation: 0  eigenvalue: -0.312222
  lMax: 2  lLocal: 3  QijEcut: 6
  6 projectors sampled on a log grid with 607 points:
    l: 0  eig: -4.008819  rCut: 1.55
    l: 0  eig: -0.516386  rCut: 1.55
    l: 1  eig: -2.753096  rCut: 1.55
    l: 1  eig: -0.312226  rCut: 1.55
    l: 2  eig: -0.791264  rCut: 1.65
    l: 2  eig: -0.450000  rCut: 1.65
  Partial core density with radius 0.65
  Transforming core density to a uniform radial grid of dG=0.02 with 1296 points.
  Transforming local potential to a uniform radial grid of dG=0.02 with 1296 points.
  Transforming nonlocal projectors to a uniform radial grid of dG=0.02 with 432 points.
  Transforming density augmentations to a uniform radial grid of dG=0.02 with 1296 points.
  Transforming atomic orbitals to a uniform radial grid of dG=0.02 with 432 points.
  Core radius for overlap checks: 1.65 bohrs.

Reading pseudopotential file '/home/guoxy/vasp/jdftx-1.5.0/build/pseudopotentials/GBRV/s_pbe.uspp':
  Title: S.  Created by USPP 7.3.6 on 1-4-15
  Reference state energy: -11.898476.  6 valence electrons in orbitals:
    |300>  occupation: 2  eigenvalue: -0.634167
    |310>  occupation: 4  eigenvalue: -0.257568
  lMax: 2  lLocal: 3  QijEcut: 6
  6 projectors sampled on a log grid with 635 points:
    l: 0  eig: -0.634161  rCut: 1.5
    l: 0  eig: 1.500000  rCut: 1.5
    l: 1  eig: -0.257567  rCut: 1.5
    l: 1  eig: 1.500000  rCut: 1.5
    l: 2  eig: -1.000000  rCut: 1.5
    l: 2  eig: 1.500000  rCut: 1.5
  Partial core density with radius 1.15
  Transforming core density to a uniform radial grid of dG=0.02 with 1296 points.
  Transforming local potential to a uniform radial grid of dG=0.02 with 1296 points.
  Transforming nonlocal projectors to a uniform radial grid of dG=0.02 with 432 points.
  Transforming density augmentations to a uniform radial grid of dG=0.02 with 1296 points.
  Transforming atomic orbitals to a uniform radial grid of dG=0.02 with 432 points.
  Core radius for overlap checks: 1.50 bohrs.

Initialized 2 species with 72 total atoms.

Folded 1 k-points by 2x2x1 to 4 k-points.

---------- Setting up k-points, bands, fillings ----------
No reducable k-points. 
Computing the number of bands and number of electrons
Calculating initial fillings.
nElectrons: 752.000000   nBands: 576   nStates: 4

----- Setting up reduced wavefunction bases (one per k-point) -----
average nbasis = 125491.750 , ideal nbasis = 125486.128

---------- Setting up coulomb interaction ----------
Fluid mode embedding: using embedded box, but periodic Coulomb kernel.
(Fluid response is responsible for (approximate) separation between periodic images.)
Setting up double-sized grid for truncated Coulomb potentials:
R = 
[    29.7808          0          0  ]
[          0    29.7664          0  ]
[          0          0    66.2712  ]
unit cell volume = 58747.1
G =
[   0.210981          0          0  ]
[          0   0.211083          0  ]
[          0          0  0.0948102  ]
Chosen fftbox size, S = [  140  140  320  ]
Integer grid location selected as the embedding center:
   Grid: [  0  0  80  ]
   Lattice: [  0  0  0.5  ]
   Cartesian: [  0  0  16.5678  ]
Constructing Wigner-Seitz cell: 6 faces (6 quadrilaterals, 0 hexagons)
Range-separation parameter for embedded mesh potentials due to point charges: 0.581854 bohrs.

Initializing van der Waals corrections
	NOTE: vdW corrections apply only for interactions with fluid.
	Fe:  C6:  187.33 Eh-a0^6  R0: 2.952 a0
	 S:  C6:   96.61 Eh-a0^6  R0: 3.180 a0

---------- Setting up ewald sum ----------
Optimum gaussian width for ewald sums = 7.603558 bohr.
Real space sum over 567 unit cells with max indices [  4  4  3  ]
Reciprocal space sum over 6975 terms with max indices [  7  7  15  ]

---------- Allocating electronic variables ----------
Initializing wave functions:  linear combination of atomic orbitals
Fe pseudo-atom occupations:   s ( 2 0 )  p ( 6 0 )  d ( 8 )
S pseudo-atom occupations:   s ( 2 )  p ( 4 )
	FillingsUpdate:  mu: -1.234313468  nElectrons: 752.000000
LCAOMinimize: Iter:   0  F: -4066.1602133413148294  |grad|_K:  1.961e-02  alpha:  1.000e+00
	FillingsUpdate:  mu: +2.166810504  nElectrons: 752.000000
LCAOMinimize: Iter:   1  F: -4146.7562950040910437  |grad|_K:  2.226e-02  alpha:  3.944e-01  linmin:  2.237e-01  cgtest: -7.184e-01  t[s]:    208.84
LCAOMinimize: 	Bad step direction: g.d > 0.
LCAOMinimize: 	Undoing step.
LCAOMinimize: 	Step failed: resetting search direction.
	FillingsUpdate:  mu: +2.166810504  nElectrons: 752.000000
LCAOMinimize: Iter:   2  F: -4146.7562950040910437  |grad|_K:  2.226e-02  alpha:  0.000e+00
	FillingsUpdate:  mu: -0.237259989  nElectrons: 752.000000
LCAOMinimize: Iter:   3  F: -4384.8202451151037167  |grad|_K:  2.139e-03  alpha:  1.814e-01  linmin:  2.789e-01  cgtest: -5.295e-01  t[s]:    328.64
LCAOMinimize: 	Bad step direction: g.d > 0.
LCAOMinimize: 	Undoing step.
LCAOMinimize: 	Step failed: resetting search direction.
	FillingsUpdate:  mu: -0.237259989  nElectrons: 752.000000
LCAOMinimize: Iter:   4  F: -4384.8202451151037167  |grad|_K:  2.139e-03  alpha:  0.000e+00
	FillingsUpdate:  mu: -0.109192836  nElectrons: 752.000000
LCAOMinimize: Iter:   5  F: -4385.3532494423252501  |grad|_K:  1.477e-03  alpha:  1.739e-01  linmin:  2.111e-02  cgtest: -1.143e-01  t[s]:    448.71
	FillingsUpdate:  mu: -0.104450630  nElectrons: 752.000000
LCAOMinimize: Iter:   6  F: -4385.3827715153074678  |grad|_K:  5.058e-04  alpha:  2.378e-02  linmin:  7.369e-02  cgtest:  1.500e-01  t[s]:    518.57
LCAOMinimize: 	Predicted alpha/alphaT>3.000000, increasing alphaT to 7.133579e-02.
LCAOMinimize: 	Predicted alpha/alphaT>3.000000, increasing alphaT to 2.140074e-01.
	FillingsUpdate:  mu: -0.129076350  nElectrons: 752.000000
LCAOMinimize: Iter:   7  F: -4385.4255230067883531  |grad|_K:  4.722e-04  alpha:  2.588e-01  linmin: -3.845e-03  cgtest:  5.827e-02  t[s]:    627.98
	FillingsUpdate:  mu: -0.130493068  nElectrons: 752.000000
LCAOMinimize: Iter:   8  F: -4385.4295266918989000  |grad|_K:  1.916e-04  alpha:  2.614e-02  linmin: -1.015e-02  cgtest: -2.114e-02  t[s]:    698.12
LCAOMinimize: 	Predicted alpha/alphaT>3.000000, increasing alphaT to 7.843008e-02.
LCAOMinimize: 	Predicted alpha/alphaT>3.000000, increasing alphaT to 2.352902e-01.
	FillingsUpdate:  mu: -0.118589142  nElectrons: 752.000000
LCAOMinimize: Iter:   9  F: -4385.4357977736108296  |grad|_K:  1.078e-04  alpha:  2.531e-01  linmin:  6.557e-03  cgtest: -4.403e-02  t[s]:    805.67
	FillingsUpdate:  mu: -0.119021849  nElectrons: 752.000000
LCAOMinimize: Iter:  10  F: -4385.4362873297586702  |grad|_K:  1.417e-04  alpha:  6.398e-02  linmin: -3.731e-04  cgtest:  1.679e-02  t[s]:    875.89
	FillingsUpdate:  mu: -0.122829444  nElectrons: 752.000000
LCAOMinimize: Iter:  11  F: -4385.4378786027709793  |grad|_K:  3.177e-05  alpha:  1.188e-01  linmin:  2.747e-04  cgtest: -2.657e-01  t[s]:    945.17
	FillingsUpdate:  mu: -0.122085059  nElectrons: 752.000000
LCAOMinimize: Iter:  12  F: -4385.4379802666881005  |grad|_K:  5.107e-05  alpha:  1.515e-01  linmin:  1.301e-04  cgtest:  5.682e-04  t[s]:   1015.01
	FillingsUpdate:  mu: -0.121489814  nElectrons: 752.000000
LCAOMinimize: Iter:  13  F: -4385.4380433912319859  |grad|_K:  1.052e-05  alpha:  3.630e-02  linmin: -1.523e-03  cgtest:  3.745e-02  t[s]:   1084.34
LCAOMinimize: 	Predicted alpha/alphaT>3.000000, increasing alphaT to 1.089008e-01.
LCAOMinimize: 	Predicted alpha/alphaT>3.000000, increasing alphaT to 3.267025e-01.
	FillingsUpdate:  mu: -0.121253067  nElectrons: 752.000000
LCAOMinimize: Iter:  14  F: -4385.4380676461241819  |grad|_K:  2.300e-05  alpha:  3.285e-01  linmin: -1.181e-05  cgtest: -1.036e-03  t[s]:   1193.38
	FillingsUpdate:  mu: -0.121190971  nElectrons: 752.000000
LCAOMinimize: Iter:  15  F: -4385.4380793684840683  |grad|_K:  7.187e-06  alpha:  3.331e-02  linmin:  3.961e-04  cgtest: -1.786e-03  t[s]:   1263.19
LCAOMinimize: 	Predicted alpha/alphaT>3.000000, increasing alphaT to 9.991900e-02.
	FillingsUpdate:  mu: -0.121571473  nElectrons: 752.000000
LCAOMinimize: Iter:  16  F: -4385.4380865811508556  |grad|_K:  5.858e-06  alpha:  2.099e-01  linmin: -2.836e-05  cgtest:  2.801e-03  t[s]:   1350.72
	FillingsUpdate:  mu: -0.121595046  nElectrons: 752.000000
LCAOMinimize: Iter:  17  F: -4385.4380873397130927  |grad|_K:  4.055e-06  alpha:  3.318e-02  linmin: -6.670e-05  cgtest: -5.668e-05  t[s]:   1420.74
LCAOMinimize: 	Predicted alpha/alphaT>3.000000, increasing alphaT to 9.954248e-02.
	FillingsUpdate:  mu: -0.121525985  nElectrons: 752.000000
LCAOMinimize: Iter:  18  F: -4385.4380898519857510  |grad|_K:  1.648e-06  alpha:  2.294e-01  linmin:  3.832e-05  cgtest: -2.176e-03  t[s]:   1525.88
	FillingsUpdate:  mu: -0.121518842  nElectrons: 752.000000
LCAOMinimize: Iter:  19  F: -4385.4380899168754695  |grad|_K:  1.327e-06  alpha:  3.589e-02  linmin: -1.362e-05  cgtest:  1.969e-04  t[s]:   1595.62
LCAOMinimize: 	Predicted alpha/alphaT>3.000000, increasing alphaT to 1.076734e-01.
	FillingsUpdate:  mu: -0.121472417  nElectrons: 752.000000
LCAOMinimize: Iter:  20  F: -4385.4380901536260353  |grad|_K:  8.170e-07  alpha:  2.020e-01  linmin: -5.045e-05  cgtest: -7.115e-04  t[s]:   1684.44
LCAOMinimize: Converged (|Delta F|<1.000000e-06 for 2 iters).
----- createFluidSolver() ----- (Fluid-side solver setup)
   Initializing fluid molecule 'H2O'
     Initializing site 'O'
       Electron density: proportional to exp(-r/0.36935)*erfc((r-0.51523)/0.36823) with norm 6.826
       Charge density: gaussian nuclear width 0.478731 with net site charge 0.826
       Polarizability: cuspless exponential with width 0.32 and norm 3.73
       Hard sphere radius: 2.57003 bohrs
       Positions in reference frame:
         [ +0.000000 +0.000000 +0.000000 ]
     Initializing site 'H'
       Electron density: proportional to exp(-r/0.34641)*erfc((r-0)/0.390882) with norm 0.587
       Charge density: gaussian nuclear width 0.377945 with net site charge -0.413
       Polarizability: cuspless exponential with width 0.39 and norm 3.3
       Positions in reference frame:
         [ +0.000000 -1.441945 +1.122523 ]
         [ +0.000000 +1.441945 +1.122523 ]
     Net charge: 0   dipole magnitude: 0.927204
     Initializing spherical shell mfKernel with radius 2.61727 Bohr
     deltaS corrections:
       site 'O': -7.54299
       site 'H': -6.83917
   Initializing fluid molecule 'Na+'
     Initializing site 'Na'
       Electron density: proportional to exp(-r/0.19682)*erfc((r-0.71491)/0.41314) with norm 8.1383
       Charge density: gaussian nuclear width 0.365347 with net site charge -1
       Hard sphere radius: 1.86327 bohrs
       Positions in reference frame:
         [ +0.000000 +0.000000 +0.000000 ]
     Net charge: -1   dipole magnitude: 0
     Initializing gaussian mfKernel with width: 1.55004 Bohr
     deltaS corrections:
       site 'Na': -22.3555
   Initializing fluid molecule 'F-'
     Initializing site 'F'
       Electron density: proportional to exp(-r/0.38886)*erfc((r-0)/0.438782) with norm 8
       Charge density: gaussian nuclear width 0.374796 with net site charge 1
       Hard sphere radius: 2.39995 bohrs
       Positions in reference frame:
         [ +0.000000 +0.000000 +0.000000 ]
     Net charge: 1   dipole magnitude: 0
     Initializing gaussian mfKernel with width: 1.59012 Bohr
     deltaS corrections:
       site 'F': -9.04335

Correction to mu due to finite nuclear width = -0.0127008
   Cavity determined by nc: 0.00142 and sigma: 0.707107
   Nonlocal vdW cavity from gaussian model electron density with norm = 8 and sigma = 0.993594 bohr
   Charge asymmetry in cavity with sensitivity pCavity = 36.5 e-bohr/Eh
   Electrostatic cavity expanded by eta = 1.46 bohrs
   Weighted density cavitation model constrained by Nbulk: 0.0049383 bohr^-3, Pvap: 3.14029 kPa, Rvdw: 2.61727 bohr and sigmaBulk: 4.62e-05 Eh/bohr^2 at T: 298 K.
   Weighted density dispersion model using vdW pair potentials with single solvent site with sqrtC6eff: 0.77 SI.


---- Citations for features of the code used in this run ----

   Software package:
      R. Sundararaman, K. Letchworth-Weaver, K.A. Schwarz, D. Gunceler, Y. Ozhabes and T.A. Arias, 'JDFTx: software for joint density-functional theory', SoftwareX 6, 278 (2017)

   gga-PBE exchange-correlation functional:
      J.P. Perdew, K. Burke and M. Ernzerhof, Phys. Rev. Lett. 77, 3865 (1996)

   Pseudopotentials:
      KF Garrity, JW Bennett, KM Rabe and D Vanderbilt, Comput. Mater. Sci. 81, 446 (2014)

   Truncated Coulomb potentials:
      R. Sundararaman and T.A. Arias, Phys. Rev. B 87, 165122 (2013)

   Van der Waals correction pair-potentials:
      S. Grimme, J. Comput. Chem. 27, 1787 (2006)

   Charge-asymmetric nonlocally-determined local-electric (CANDLE) solvation model:
      R. Sundararaman and W.A. Goddard III, J. Chem. Phys. 142, 064107 (2015)

This list may not be complete. Please suggest additional citations or
report any other bugs at https://github.com/shankar1729/jdftx/issues

Initialization completed successfully at t[s]:   1712.61

Fluid solver invoked on fresh (partially random / LCAO) wavefunctions
Running a vacuum solve first:

-------- Initial electronic minimization -----------
Will mix electronic density at each iteration.
	FillingsUpdate:  mu: -0.121472417  nElectrons: 752.000000

Stack trace:
	 0: /home/guoxy/vasp/jdftx-1.5.0/build/libjdftx_gpu.so(_Z10printStackb+0x34) [0x2b67cf165ed4]
	 1: /home/guoxy/vasp/jdftx-1.5.0/build/libjdftx_gpu.so(_Z14stackTraceExiti+0xd) [0x2b67cf1663cd]
	 2: /home/guoxy/vasp/jdftx-1.5.0/build/libjdftx_gpu.so(_Z16matrixSubGet_gpuiiiiiiiPK7complexPS_+0x132) [0x2b67cf3cd9a2]
	 3: /home/guoxy/vasp/jdftx-1.5.0/build/libjdftx_gpu.so(_ZNK6matrixclEiiiiii+0x151) [0x2b67cf1777c1]
	 4: /home/guoxy/vasp/jdftx-1.5.0/build/libjdftx_gpu.so(_ZNK19matrixScaledTransOpcv6matrixEv+0x20c) [0x2b67cf17917c]
	 5: /home/guoxy/vasp/jdftx-1.5.0/build/libjdftx_gpu.so(_ZNK11SpeciesInfo27augmentDensitySphericalGradERK13QuantumNumberRK6matrixRS3_+0x48d) [0x2b67cf2853bd]
	 6: /home/guoxy/vasp/jdftx-1.5.0/build/libjdftx_gpu.so(_ZNK7IonInfo27augmentDensitySphericalGradERK13QuantumNumberRKSt6vectorI6matrixSaIS4_EERS6_+0x52) [0x2b67cf23e792]
	 7: /home/guoxy/vasp/jdftx-1.5.0/build/libjdftx_gpu.so(_ZN8ElecVars16applyHamiltonianEiRK10diagMatrixR12ColumnBundleR8Energiesb+0x3dc) [0x2b67cf1ed3bc]
	 8: /home/guoxy/vasp/jdftx-1.5.0/build/libjdftx_gpu.so(_ZN8ElecVars17elecEnergyAndGradER8EnergiesP12ElecGradientS3_b+0x487) [0x2b67cf1edbb7]
	 9: /home/guoxy/vasp/jdftx-1.5.0/build/libjdftx_gpu.so(_ZN3SCF8minimizeEv+0x1c9) [0x2b67cf26b059]
	10: /home/guoxy/vasp/jdftx-1.5.0/build/libjdftx_gpu.so(_Z12elecMinimizeR10Everything+0x14b) [0x2b67cf1e397b]
	11: /home/guoxy/vasp/jdftx-1.5.0/build/libjdftx_gpu.so(_Z17elecFluidMinimizeR10Everything+0xd1b) [0x2b67cf1e4c4b]
	12: /home/guoxy/vasp/jdftx-1.5.0/build/libjdftx_gpu.so(+0x3b2009) [0x2b67cf249009]
	13: /home/guoxy/vasp/jdftx-1.5.0/build/libjdftx_gpu.so(_ZN11MinimizableI13IonicGradientE5lBFGSERK14MinimizeParams+0x9b) [0x2b67cf24b2ab]
	14: /home/guoxy/vasp/jdftx-1.5.0/build/libjdftx_gpu.so(_ZN11MinimizableI13IonicGradientE8minimizeERK14MinimizeParams+0x8d5) [0x2b67cf24cb85]
	15: /home/guoxy/vasp/jdftx-1.5.0/build/libjdftx_gpu.so(_ZN14IonicMinimizer8minimizeERK14MinimizeParams+0xd) [0x2b67cf24940d]
	16: jdftx_gpu(main+0xe39) [0x405cb9]
	17: /lib/x86_64-linux-gnu/libc.so.6(__libc_start_main+0xf0) [0x2b67cff7e830]
	18: jdftx_gpu(_start+0x29) [0x406d59]
Writing 'jdftx-stacktrace' (for use with script printStackTrace): done.
