
*************** JDFTx 1.5.0  ***************

Start date and time: Fri Jan  8 19:03:30 2021
Executable jdftx_gpu with command-line: -i Charged.in -o Charged.out
Running on hosts (process indices):  amax (0-6)
Divided in process groups (process indices):  0 (0)  1 (1)  2 (2)  3 (3)  4 (4)  5 (5)  6 (6)
gpuInit: Found compatible cuda device 0 'Tesla K80'
gpuInit: Found compatible cuda device 1 'Tesla K80'
gpuInit: Found compatible cuda device 2 'Tesla K80'
gpuInit: Found compatible cuda device 3 'Tesla K80'
gpuInit: Found compatible cuda device 4 'Tesla K80'
gpuInit: Found compatible cuda device 5 'Tesla K80'
gpuInit: Found compatible cuda device 6 'Tesla K80'
gpuInit: Selected device 0
Resource initialization completed at t[s]:      4.35
Run totals: 7 processes, 24 threads, 7 GPUs


Input parsed successfully to the following command list (including defaults):

basis kpoint-dependent
cache-projectors no
coords-type Lattice
core-overlap-check none
coulomb-interaction Slab 001
coulomb-truncation-embed 0.5 0.5 0.5
davidson-band-ratio 1.1
dump End State
dump-name NbTe2.$VAR
elec-cutoff 20
elec-eigen-algo Davidson
elec-ex-corr gga-PBE
elec-initial-charge 0.000000
elec-initial-magnetization 5.000000 no
elec-smearing Gauss 0.0073499
electronic-minimize  \
	dirUpdateScheme      FletcherReeves \
	linminMethod         DirUpdateRecommended \
	nIterations          200 \
	history              15 \
	knormThreshold       0 \
	energyDiffThreshold  1e-08 \
	nEnergyDiff          2 \
	alphaTstart          1 \
	alphaTmin            1e-10 \
	updateTestStepSize   yes \
	alphaTreduceFactor   0.1 \
	alphaTincreaseFactor 3 \
	nAlphaAdjustMax      3 \
	wolfeEnergy          0.0001 \
	wolfeGradient        0.9 \
	fdTest               no
exchange-regularization WignerSeitzTruncated
fluid LinearPCM 298.000000 1.013250
fluid-anion F- 1 MeanFieldLJ \
	epsBulk 1 \
	pMol 0 \
	epsInf 1 \
	Pvap 0 \
	sigmaBulk 0 \
	Rvdw 2.24877 \
	Res 0 \
	tauNuc 343133
fluid-cation Na+ 1 MeanFieldLJ \
	epsBulk 1 \
	pMol 0 \
	epsInf 1 \
	Pvap 0 \
	sigmaBulk 0 \
	Rvdw 2.19208 \
	Res 0 \
	tauNuc 343133
fluid-ex-corr lda-TF lda-PZ
fluid-gummel-loop 10 1.000000e-05
fluid-minimize  \
	dirUpdateScheme      PolakRibiere \
	linminMethod         DirUpdateRecommended \
	nIterations          400 \
	history              15 \
	knormThreshold       1e-11 \
	energyDiffThreshold  0 \
	nEnergyDiff          2 \
	alphaTstart          1 \
	alphaTmin            1e-10 \
	updateTestStepSize   yes \
	alphaTreduceFactor   0.1 \
	alphaTincreaseFactor 3 \
	nAlphaAdjustMax      6 \
	wolfeEnergy          0.0001 \
	wolfeGradient        0.9 \
	fdTest               no
fluid-solvent H2O 55.338 ScalarEOS \
	epsBulk 78.4 \
	pMol 0.92466 \
	epsInf 1.77 \
	Pvap 1.06736e-10 \
	sigmaBulk 4.62e-05 \
	Rvdw 2.61727 \
	Res 1.42 \
	tauNuc 343133 \
	poleEl 15 7 1
forces-output-coords Positions
initial-state NbTe2.$VAR
ion W   0.083329990000003   0.166669986000002   0.500000000000000 1
ion W   0.333329999999997   0.166669986000002   0.500000000000000 1
ion W   0.583329980999999   0.166669986000002   0.500000000000000 1
ion W   0.833329962000001   0.166669986000002   0.500000000000000 1
ion W   0.083329998000003   0.416670001999996   0.500000000000000 1
ion W   0.333330007000001   0.416670001999996   0.500000000000000 1
ion W   0.583330007000001   0.416670001999996   0.500000000000000 1
ion W   0.833329988999999   0.416670001999996   0.500000000000000 1
ion W   0.083329996000003   0.666670017000001   0.500000000000000 1
ion W   0.333330015000001   0.666670017000001   0.500000000000000 1
ion W   0.583329996000003   0.666670017000001   0.500000000000000 1
ion W   0.833329978000002   0.666670017000001   0.500000000000000 1
ion W   0.083329984999999   0.916670033000003   0.500000000000000 1
ion W   0.333330003999997   0.916670033000003   0.500000000000000 1
ion W   0.583329984999999   0.916670033000003   0.500000000000000 1
ion W   0.833329966999997   0.916670033000003   0.500000000000000 1
ion S   0.166669992000003   0.083329997000000   0.413270007000001 1
ion S   0.166669992000003   0.083329997000000   0.586730019999997 1
ion S   0.416669992000003   0.083329997000000   0.413270007000001 1
ion S   0.416669992000003   0.083329997000000   0.586730019999997 1
ion S   0.666670011000001   0.083329997000000   0.413270007000001 1
ion S   0.666670011000001   0.083329997000000   0.586730019999997 1
ion S   0.916670066999998   0.083329997000000   0.413270007000001 1
ion S   0.916670066999998   0.083329997000000   0.586730019999997 1
ion S   0.166669994000003   0.333330001000000   0.413270007000001 1
ion S   0.166669994000003   0.333330001000000   0.586730019999997 1
ion S   0.416669974999998   0.333330001000000   0.413270007000001 1
ion S   0.416669974999998   0.333330001000000   0.586730019999997 1
ion S   0.666669994000003   0.333330001000000   0.413270007000001 1
ion S   0.666669994000003   0.333330001000000   0.586730019999997 1
ion S   0.916670013000001   0.333330001000000   0.413270007000001 1
ion S   0.916670013000001   0.333330001000000   0.586730019999997 1
ion S   0.166669999000000   0.583329974000002   0.413270007000001 1
ion S   0.166669999000000   0.583329974000002   0.586730019999997 1
ion S   0.416669980000002   0.583329974000002   0.413270007000001 1
ion S   0.416669980000002   0.583329974000002   0.586730019999997 1
ion S   0.666669999000000   0.583329974000002   0.413270007000001 1
ion S   0.666669999000000   0.583329974000002   0.586730019999997 1
ion S   0.916670054999997   0.583329974000002   0.413270007000001 1
ion S   0.916670054999997   0.583329974000002   0.586730019999997 1
ion S   0.166669966000001   0.833329945999999   0.413270007000001 1
ion S   0.166669966000001   0.833329945999999   0.586730019999997 1
ion S   0.416669947000003   0.833329945999999   0.413270007000001 1
ion S   0.416669947000003   0.833329945999999   0.586730019999997 1
ion S   0.666669966000001   0.833329945999999   0.413270007000001 1
ion S   0.666669966000001   0.833329945999999   0.586730019999997 1
ion S   0.916670023000002   0.833329945999999   0.413270007000001 1
ion S   0.916670023000002   0.833329945999999   0.586730019999997 1
ion-species GBRV/$ID_pbe.uspp
ion-width Ecut
ionic-minimize  \
	dirUpdateScheme      L-BFGS \
	linminMethod         DirUpdateRecommended \
	nIterations          500 \
	history              15 \
	knormThreshold       0.0001 \
	energyDiffThreshold  1e-06 \
	nEnergyDiff          2 \
	alphaTstart          1 \
	alphaTmin            1e-10 \
	updateTestStepSize   yes \
	alphaTreduceFactor   0.1 \
	alphaTincreaseFactor 3 \
	nAlphaAdjustMax      3 \
	wolfeEnergy          0.0001 \
	wolfeGradient        0.9 \
	fdTest               no
kpoint   0.000000000000   0.000000000000   0.000000000000  1.00000000000000
kpoint-folding 5 5 1 
latt-move-scale 1 1 1
latt-scale 1.88973 1.88973 1.88973 
lattice Triclinic 12.7007 12.7008 18.1461 90 90 120
lattice-minimize  \
	dirUpdateScheme      L-BFGS \
	linminMethod         DirUpdateRecommended \
	nIterations          0 \
	history              15 \
	knormThreshold       0 \
	energyDiffThreshold  1e-06 \
	nEnergyDiff          2 \
	alphaTstart          1 \
	alphaTmin            1e-10 \
	updateTestStepSize   yes \
	alphaTreduceFactor   0.1 \
	alphaTincreaseFactor 3 \
	nAlphaAdjustMax      3 \
	wolfeEnergy          0.0001 \
	wolfeGradient        0.9 \
	fdTest               no
lcao-params -1 1e-06 0.0073499
pcm-variant CANDLE
spintype z-spin
subspace-rotation-factor 1 yes
symmetries automatic
symmetry-threshold 0.0001



---------- Setting up symmetries ----------

Found 24 point-group symmetries of the bravais lattice
Found 64 space-group symmetries with basis
Applied RMS atom displacement 7.79785e-07 bohrs to make symmetries exact.

---------- Initializing the Grid ----------
R = 
[    24.0008   -12.0005          0  ]
[          0    20.7855          0  ]
[          0          0    34.2912  ]
unit cell volume = 17106.8
G =
[    0.26179   0.151145         -0  ]
[          0   0.302287          0  ]
[          0         -0    0.18323  ]
Minimum fftbox size, Smin = [  100  100  140  ]
Chosen fftbox size, S = [  100  100  140  ]

---------- Exchange Correlation functional ----------
Initalized PBE GGA exchange.
Initalized PBE GGA correlation.

---------- Setting up pseudopotentials ----------
Width of ionic core gaussian charges (only for fluid interactions / plotting) set to 0.397384

Reading pseudopotential file '/home/guoxy/vasp/jdftx-1.5.0/build/pseudopotentials/GBRV/w_pbe.uspp':
  Title: W.  Created by USPP 7.3.6 on 3-2-2014
  Reference state energy: -79.133630.  14 valence electrons in orbitals:
    |500>  occupation: 2  eigenvalue: -2.938934
    |510>  occupation: 6  eigenvalue: -1.620730
    |520>  occupation: 3.9  eigenvalue: -0.194511
    |600>  occupation: 2  eigenvalue: -0.234858
    |610>  occupation: 0  eigenvalue: -0.069444
  lMax: 3  lLocal: 3  QijEcut: 5
  8 projectors sampled on a log grid with 667 points:
    l: 0  eig: -2.938934  rCut: 1.45
    l: 0  eig: -0.234859  rCut: 1.45
    l: 0  eig: 0.500000  rCut: 1.45
    l: 1  eig: -1.620730  rCut: 1.5
    l: 1  eig: -0.069446  rCut: 1.5
    l: 2  eig: -0.194511  rCut: 1.7
    l: 2  eig: 0.150000  rCut: 1.7
    l: 3  eig: 0.500000  rCut: 2.3
  Partial core density with radius 1.2
  Transforming core density to a uniform radial grid of dG=0.02 with 1463 points.
  Transforming local potential to a uniform radial grid of dG=0.02 with 1463 points.
  Transforming nonlocal projectors to a uniform radial grid of dG=0.02 with 432 points.
  Transforming density augmentations to a uniform radial grid of dG=0.02 with 1463 points.
  Transforming atomic orbitals to a uniform radial grid of dG=0.02 with 432 points.
  Core radius for overlap checks: 2.30 bohrs.

Reading pseudopotential file '/home/guoxy/vasp/jdftx-1.5.0/build/pseudopotentials/GBRV/s_pbe.uspp':
  Title: S.  Created by USPP 7.3.6 on 1-4-15
  Reference state energy: -11.898476.  6 valence electrons in orbitals:
    |300>  occupation: 2  eigenvalue: -0.634167
    |310>  occupation: 4  eigenvalue: -0.257568
  lMax: 2  lLocal: 3  QijEcut: 6
  6 projectors sampled on a log grid with 635 points:
    l: 0  eig: -0.634161  rCut: 1.5
    l: 0  eig: 1.500000  rCut: 1.5
    l: 1  eig: -0.257567  rCut: 1.5
    l: 1  eig: 1.500000  rCut: 1.5
    l: 2  eig: -1.000000  rCut: 1.5
    l: 2  eig: 1.500000  rCut: 1.5
  Partial core density with radius 1.15
  Transforming core density to a uniform radial grid of dG=0.02 with 1463 points.
  Transforming local potential to a uniform radial grid of dG=0.02 with 1463 points.
  Transforming nonlocal projectors to a uniform radial grid of dG=0.02 with 432 points.
  Transforming density augmentations to a uniform radial grid of dG=0.02 with 1463 points.
  Transforming atomic orbitals to a uniform radial grid of dG=0.02 with 432 points.
  Core radius for overlap checks: 1.50 bohrs.

Initialized 2 species with 48 total atoms.

Folded 1 k-points by 5x5x1 to 25 k-points.

---------- Setting up k-points, bands, fillings ----------
Adding inversion symmetry to k-mesh for non-inversion-symmetric unit cell.
Reduced to 9 k-points under symmetry. 
Computing the number of bands and number of electrons
Calculating initial fillings.
nElectrons: 416.000000   nBands: 336   nStates: 18

----- Setting up reduced wavefunction bases (one per k-point) -----
average nbasis = 73092.360 , ideal nbasis = 73081.621

---------- Setting up coulomb interaction ----------
Fluid mode embedding: using embedded box, but periodic Coulomb kernel.
(Fluid response is responsible for (approximate) separation between periodic images.)
Setting up double-sized grid for truncated Coulomb potentials:
R = 
[    24.0008   -12.0005          0  ]
[          0    20.7855          0  ]
[          0          0    68.5823  ]
unit cell volume = 34213.6
G =
[    0.26179   0.151145         -0  ]
[          0   0.302287          0  ]
[          0         -0  0.0916152  ]
Chosen fftbox size, S = [  100  100  280  ]
Integer grid location selected as the embedding center:
   Grid: [  50  50  70  ]
   Lattice: [  0.5  0.5  0.5  ]
   Cartesian: [  6.00016  10.3928  17.1456  ]
Constructing Wigner-Seitz cell: 8 faces (6 quadrilaterals, 2 hexagons)
Range-separation parameter for embedded mesh potentials due to point charges: 0.624363 bohrs.

Initializing van der Waals corrections
	NOTE: vdW corrections apply only for interactions with fluid.
	 W:  C6:  815.23 Eh-a0^6  R0: 3.326 a0 (WARNING: beyond Grimme's data set)
	 S:  C6:   96.61 Eh-a0^6  R0: 3.180 a0

---------- Setting up ewald sum ----------
Optimum gaussian width for ewald sums = 6.793646 bohr.
Real space sum over 605 unit cells with max indices [  5  5  2  ]
Reciprocal space sum over 7875 terms with max indices [  7  7  17  ]

---------- Allocating electronic variables ----------

*************** JDFTx 1.5.0  ***************

Start date and time: Wed Jan 13 02:39:59 2021
Executable jdftx_gpu with command-line: -i Charged.in -o Charged.out
Running on hosts (process indices):  amax (0-4)
Divided in process groups (process indices):  0 (0)  1 (1)  2 (2)  3 (3)  4 (4)
gpuInit: Found compatible cuda device 0 'Tesla K80'
gpuInit: Found compatible cuda device 1 'Tesla K80'
gpuInit: Found compatible cuda device 2 'Tesla K80'
gpuInit: Found compatible cuda device 3 'Tesla K80'
gpuInit: Found compatible cuda device 4 'Tesla K80'
gpuInit: Selected device 0
Resource initialization completed at t[s]:      2.62
Run totals: 5 processes, 24 threads, 5 GPUs


Input parsed successfully to the following command list (including defaults):

basis kpoint-dependent
cache-projectors no
coords-type Lattice
core-overlap-check none
coulomb-interaction Slab 001
coulomb-truncation-embed 0.5 0.5 0.5
davidson-band-ratio 1.1
dump End State
dump-name NbTe2.$VAR
elec-cutoff 20
elec-eigen-algo Davidson
elec-ex-corr gga-PBE
elec-initial-charge 0.000000
elec-initial-magnetization 5.000000 no
elec-smearing Gauss 0.0073499
electronic-minimize  \
	dirUpdateScheme      FletcherReeves \
	linminMethod         DirUpdateRecommended \
	nIterations          200 \
	history              15 \
	knormThreshold       0 \
	energyDiffThreshold  1e-08 \
	nEnergyDiff          2 \
	alphaTstart          1 \
	alphaTmin            1e-10 \
	updateTestStepSize   yes \
	alphaTreduceFactor   0.1 \
	alphaTincreaseFactor 3 \
	nAlphaAdjustMax      3 \
	wolfeEnergy          0.0001 \
	wolfeGradient        0.9 \
	fdTest               no
exchange-regularization WignerSeitzTruncated
fluid LinearPCM 298.000000 1.013250
fluid-anion F- 1 MeanFieldLJ \
	epsBulk 1 \
	pMol 0 \
	epsInf 1 \
	Pvap 0 \
	sigmaBulk 0 \
	Rvdw 2.24877 \
	Res 0 \
	tauNuc 343133
fluid-cation Na+ 1 MeanFieldLJ \
	epsBulk 1 \
	pMol 0 \
	epsInf 1 \
	Pvap 0 \
	sigmaBulk 0 \
	Rvdw 2.19208 \
	Res 0 \
	tauNuc 343133
fluid-ex-corr lda-TF lda-PZ
fluid-gummel-loop 10 1.000000e-05
fluid-minimize  \
	dirUpdateScheme      PolakRibiere \
	linminMethod         DirUpdateRecommended \
	nIterations          400 \
	history              15 \
	knormThreshold       1e-11 \
	energyDiffThreshold  0 \
	nEnergyDiff          2 \
	alphaTstart          1 \
	alphaTmin            1e-10 \
	updateTestStepSize   yes \
	alphaTreduceFactor   0.1 \
	alphaTincreaseFactor 3 \
	nAlphaAdjustMax      6 \
	wolfeEnergy          0.0001 \
	wolfeGradient        0.9 \
	fdTest               no
fluid-solvent H2O 55.338 ScalarEOS \
	epsBulk 78.4 \
	pMol 0.92466 \
	epsInf 1.77 \
	Pvap 1.06736e-10 \
	sigmaBulk 4.62e-05 \
	Rvdw 2.61727 \
	Res 1.42 \
	tauNuc 343133 \
	poleEl 15 7 1
forces-output-coords Positions
initial-state NbTe2.$VAR
ion W   0.083329990000003   0.166669986000002   0.500000000000000 1
ion W   0.333329999999997   0.166669986000002   0.500000000000000 1
ion W   0.583329980999999   0.166669986000002   0.500000000000000 1
ion W   0.833329962000001   0.166669986000002   0.500000000000000 1
ion W   0.083329998000003   0.416670001999996   0.500000000000000 1
ion W   0.333330007000001   0.416670001999996   0.500000000000000 1
ion W   0.583330007000001   0.416670001999996   0.500000000000000 1
ion W   0.833329988999999   0.416670001999996   0.500000000000000 1
ion W   0.083329996000003   0.666670017000001   0.500000000000000 1
ion W   0.333330015000001   0.666670017000001   0.500000000000000 1
ion W   0.583329996000003   0.666670017000001   0.500000000000000 1
ion W   0.833329978000002   0.666670017000001   0.500000000000000 1
ion W   0.083329984999999   0.916670033000003   0.500000000000000 1
ion W   0.333330003999997   0.916670033000003   0.500000000000000 1
ion W   0.583329984999999   0.916670033000003   0.500000000000000 1
ion W   0.833329966999997   0.916670033000003   0.500000000000000 1
ion S   0.166669992000003   0.083329997000000   0.413270007000001 1
ion S   0.166669992000003   0.083329997000000   0.586730019999997 1
ion S   0.416669992000003   0.083329997000000   0.413270007000001 1
ion S   0.416669992000003   0.083329997000000   0.586730019999997 1
ion S   0.666670011000001   0.083329997000000   0.413270007000001 1
ion S   0.666670011000001   0.083329997000000   0.586730019999997 1
ion S   0.916670066999998   0.083329997000000   0.413270007000001 1
ion S   0.916670066999998   0.083329997000000   0.586730019999997 1
ion S   0.166669994000003   0.333330001000000   0.413270007000001 1
ion S   0.166669994000003   0.333330001000000   0.586730019999997 1
ion S   0.416669974999998   0.333330001000000   0.413270007000001 1
ion S   0.416669974999998   0.333330001000000   0.586730019999997 1
ion S   0.666669994000003   0.333330001000000   0.413270007000001 1
ion S   0.666669994000003   0.333330001000000   0.586730019999997 1
ion S   0.916670013000001   0.333330001000000   0.413270007000001 1
ion S   0.916670013000001   0.333330001000000   0.586730019999997 1
ion S   0.166669999000000   0.583329974000002   0.413270007000001 1
ion S   0.166669999000000   0.583329974000002   0.586730019999997 1
ion S   0.416669980000002   0.583329974000002   0.413270007000001 1
ion S   0.416669980000002   0.583329974000002   0.586730019999997 1
ion S   0.666669999000000   0.583329974000002   0.413270007000001 1
ion S   0.666669999000000   0.583329974000002   0.586730019999997 1
ion S   0.916670054999997   0.583329974000002   0.413270007000001 1
ion S   0.916670054999997   0.583329974000002   0.586730019999997 1
ion S   0.166669966000001   0.833329945999999   0.413270007000001 1
ion S   0.166669966000001   0.833329945999999   0.586730019999997 1
ion S   0.416669947000003   0.833329945999999   0.413270007000001 1
ion S   0.416669947000003   0.833329945999999   0.586730019999997 1
ion S   0.666669966000001   0.833329945999999   0.413270007000001 1
ion S   0.666669966000001   0.833329945999999   0.586730019999997 1
ion S   0.916670023000002   0.833329945999999   0.413270007000001 1
ion S   0.916670023000002   0.833329945999999   0.586730019999997 1
ion-species GBRV/$ID_pbe.uspp
ion-width Ecut
ionic-minimize  \
	dirUpdateScheme      L-BFGS \
	linminMethod         DirUpdateRecommended \
	nIterations          500 \
	history              15 \
	knormThreshold       0.0001 \
	energyDiffThreshold  1e-06 \
	nEnergyDiff          2 \
	alphaTstart          1 \
	alphaTmin            1e-10 \
	updateTestStepSize   yes \
	alphaTreduceFactor   0.1 \
	alphaTincreaseFactor 3 \
	nAlphaAdjustMax      3 \
	wolfeEnergy          0.0001 \
	wolfeGradient        0.9 \
	fdTest               no
kpoint   0.000000000000   0.000000000000   0.000000000000  1.00000000000000
kpoint-folding 5 5 1 
latt-move-scale 1 1 1
latt-scale 1.88973 1.88973 1.88973 
lattice Triclinic 12.7007 12.7008 18.1461 90 90 120
lattice-minimize  \
	dirUpdateScheme      L-BFGS \
	linminMethod         DirUpdateRecommended \
	nIterations          0 \
	history              15 \
	knormThreshold       0 \
	energyDiffThreshold  1e-06 \
	nEnergyDiff          2 \
	alphaTstart          1 \
	alphaTmin            1e-10 \
	updateTestStepSize   yes \
	alphaTreduceFactor   0.1 \
	alphaTincreaseFactor 3 \
	nAlphaAdjustMax      3 \
	wolfeEnergy          0.0001 \
	wolfeGradient        0.9 \
	fdTest               no
lcao-params -1 1e-06 0.0073499
pcm-variant CANDLE
spintype z-spin
subspace-rotation-factor 1 yes
symmetries automatic
symmetry-threshold 0.0001



---------- Setting up symmetries ----------

Found 24 point-group symmetries of the bravais lattice
Found 64 space-group symmetries with basis
Applied RMS atom displacement 7.79785e-07 bohrs to make symmetries exact.

---------- Initializing the Grid ----------
R = 
[    24.0008   -12.0005          0  ]
[          0    20.7855          0  ]
[          0          0    34.2912  ]
unit cell volume = 17106.8
G =
[    0.26179   0.151145         -0  ]
[          0   0.302287          0  ]
[          0         -0    0.18323  ]
Minimum fftbox size, Smin = [  100  100  140  ]
Chosen fftbox size, S = [  100  100  140  ]

---------- Exchange Correlation functional ----------
Initalized PBE GGA exchange.
Initalized PBE GGA correlation.

---------- Setting up pseudopotentials ----------
Width of ionic core gaussian charges (only for fluid interactions / plotting) set to 0.397384

Reading pseudopotential file '/home/guoxy/vasp/jdftx-1.5.0/build/pseudopotentials/GBRV/w_pbe.uspp':
  Title: W.  Created by USPP 7.3.6 on 3-2-2014
  Reference state energy: -79.133630.  14 valence electrons in orbitals:
    |500>  occupation: 2  eigenvalue: -2.938934
    |510>  occupation: 6  eigenvalue: -1.620730
    |520>  occupation: 3.9  eigenvalue: -0.194511
    |600>  occupation: 2  eigenvalue: -0.234858
    |610>  occupation: 0  eigenvalue: -0.069444
  lMax: 3  lLocal: 3  QijEcut: 5
  8 projectors sampled on a log grid with 667 points:
    l: 0  eig: -2.938934  rCut: 1.45
    l: 0  eig: -0.234859  rCut: 1.45
    l: 0  eig: 0.500000  rCut: 1.45
    l: 1  eig: -1.620730  rCut: 1.5
    l: 1  eig: -0.069446  rCut: 1.5
    l: 2  eig: -0.194511  rCut: 1.7
    l: 2  eig: 0.150000  rCut: 1.7
    l: 3  eig: 0.500000  rCut: 2.3
  Partial core density with radius 1.2
  Transforming core density to a uniform radial grid of dG=0.02 with 1463 points.
  Transforming local potential to a uniform radial grid of dG=0.02 with 1463 points.
  Transforming nonlocal projectors to a uniform radial grid of dG=0.02 with 432 points.
  Transforming density augmentations to a uniform radial grid of dG=0.02 with 1463 points.
  Transforming atomic orbitals to a uniform radial grid of dG=0.02 with 432 points.
  Core radius for overlap checks: 2.30 bohrs.

Reading pseudopotential file '/home/guoxy/vasp/jdftx-1.5.0/build/pseudopotentials/GBRV/s_pbe.uspp':
  Title: S.  Created by USPP 7.3.6 on 1-4-15
  Reference state energy: -11.898476.  6 valence electrons in orbitals:
    |300>  occupation: 2  eigenvalue: -0.634167
    |310>  occupation: 4  eigenvalue: -0.257568
  lMax: 2  lLocal: 3  QijEcut: 6
  6 projectors sampled on a log grid with 635 points:
    l: 0  eig: -0.634161  rCut: 1.5
    l: 0  eig: 1.500000  rCut: 1.5
    l: 1  eig: -0.257567  rCut: 1.5
    l: 1  eig: 1.500000  rCut: 1.5
    l: 2  eig: -1.000000  rCut: 1.5
    l: 2  eig: 1.500000  rCut: 1.5
  Partial core density with radius 1.15
  Transforming core density to a uniform radial grid of dG=0.02 with 1463 points.
  Transforming local potential to a uniform radial grid of dG=0.02 with 1463 points.
  Transforming nonlocal projectors to a uniform radial grid of dG=0.02 with 432 points.
  Transforming density augmentations to a uniform radial grid of dG=0.02 with 1463 points.
  Transforming atomic orbitals to a uniform radial grid of dG=0.02 with 432 points.
  Core radius for overlap checks: 1.50 bohrs.

Initialized 2 species with 48 total atoms.

Folded 1 k-points by 5x5x1 to 25 k-points.

---------- Setting up k-points, bands, fillings ----------
Adding inversion symmetry to k-mesh for non-inversion-symmetric unit cell.
Reduced to 9 k-points under symmetry. 
Computing the number of bands and number of electrons
Calculating initial fillings.
nElectrons: 416.000000   nBands: 336   nStates: 18

----- Setting up reduced wavefunction bases (one per k-point) -----
average nbasis = 73092.360 , ideal nbasis = 73081.621

---------- Setting up coulomb interaction ----------
Fluid mode embedding: using embedded box, but periodic Coulomb kernel.
(Fluid response is responsible for (approximate) separation between periodic images.)
Setting up double-sized grid for truncated Coulomb potentials:
R = 
[    24.0008   -12.0005          0  ]
[          0    20.7855          0  ]
[          0          0    68.5823  ]
unit cell volume = 34213.6
G =
[    0.26179   0.151145         -0  ]
[          0   0.302287          0  ]
[          0         -0  0.0916152  ]
Chosen fftbox size, S = [  100  100  280  ]
Integer grid location selected as the embedding center:
   Grid: [  50  50  70  ]
   Lattice: [  0.5  0.5  0.5  ]
   Cartesian: [  6.00016  10.3928  17.1456  ]
Constructing Wigner-Seitz cell: 8 faces (6 quadrilaterals, 2 hexagons)
Range-separation parameter for embedded mesh potentials due to point charges: 0.624363 bohrs.

Initializing van der Waals corrections
	NOTE: vdW corrections apply only for interactions with fluid.
	 W:  C6:  815.23 Eh-a0^6  R0: 3.326 a0 (WARNING: beyond Grimme's data set)
	 S:  C6:   96.61 Eh-a0^6  R0: 3.180 a0

---------- Setting up ewald sum ----------
Optimum gaussian width for ewald sums = 6.793646 bohr.
Real space sum over 605 unit cells with max indices [  5  5  2  ]
Reciprocal space sum over 7875 terms with max indices [  7  7  17  ]

---------- Allocating electronic variables ----------
Initializing wave functions:  linear combination of atomic orbitals
W pseudo-atom occupations:   s ( 2 2 )  p ( 6 0 )  d ( 4 )
S pseudo-atom occupations:   s ( 2 )  p ( 4 )
	FillingsUpdate:  mu: +0.998049590  nElectrons: 416.000000  magneticMoment: [ Abs: 1.23023  Tot: +1.22257 ]
LCAOMinimize: Iter:   0  F: -1388.3674659645223528  |grad|_K:  1.733e-02  alpha:  1.000e+00
	FillingsUpdate:  mu: -0.672348306  nElectrons: 416.000000  magneticMoment: [ Abs: 0.54794  Tot: +0.51831 ]
LCAOMinimize: Iter:   1  F: -1395.3457793265204145  |grad|_K:  9.311e-03  alpha:  4.503e-01  linmin:  1.510e-01  cgtest: -1.952e+00  t[s]:    403.26
LCAOMinimize: 	Bad step direction: g.d > 0.
LCAOMinimize: 	Undoing step.
LCAOMinimize: 	Step failed: resetting search direction.
	FillingsUpdate:  mu: -0.672348306  nElectrons: 416.000000  magneticMoment: [ Abs: 0.54794  Tot: +0.51831 ]
LCAOMinimize: Iter:   2  F: -1395.3457793265204145  |grad|_K:  9.311e-03  alpha:  0.000e+00
	FillingsUpdate:  mu: -0.429704772  nElectrons: 416.000000  magneticMoment: [ Abs: 0.20677  Tot: +0.00027 ]
LCAOMinimize: Iter:   3  F: -1418.0712233974547871  |grad|_K:  5.415e-03  alpha:  1.806e-01  linmin: -4.047e-01  cgtest:  8.870e-01  t[s]:    623.65
LCAOMinimize: Encountered beta<0, resetting CG.
LCAOMinimize: 	Predicted alpha/alphaT>3.000000, increasing alphaT to 5.419203e-01.
	FillingsUpdate:  mu: -0.337116819  nElectrons: 416.000000  magneticMoment: [ Abs: 0.26056  Tot: +0.00005 ]
LCAOMinimize: Iter:   4  F: -1424.2181862640618419  |grad|_K:  3.846e-03  alpha:  1.084e-01  linmin: -4.153e-01  cgtest:  8.471e-01  t[s]:    787.52
LCAOMinimize: Encountered beta<0, resetting CG.
	FillingsUpdate:  mu: +0.111360813  nElectrons: 416.000000  magneticMoment: [ Abs: 0.33248  Tot: +0.02575 ]
LCAOMinimize: Iter:   5  F: -1426.2689334641527239  |grad|_K:  3.195e-03  alpha:  3.251e-01  linmin:  4.699e-01  cgtest: -7.913e-01  t[s]:    915.95
LCAOMinimize: 	Bad step direction: g.d > 0.
LCAOMinimize: 	Undoing step.
LCAOMinimize: 	Step failed: resetting search direction.
	FillingsUpdate:  mu: +0.111360813  nElectrons: 416.000000  magneticMoment: [ Abs: 0.33248  Tot: +0.02575 ]
LCAOMinimize: Iter:   6  F: -1426.2689334641527239  |grad|_K:  3.195e-03  alpha:  0.000e+00
	FillingsUpdate:  mu: -0.138096986  nElectrons: 416.000000  magneticMoment: [ Abs: 0.24288  Tot: +0.00108 ]
LCAOMinimize: Iter:   7  F: -1427.9816003466789880  |grad|_K:  1.265e-04  alpha:  1.825e-01  linmin:  4.495e-01  cgtest: -1.062e+00  t[s]:   1135.60
	FillingsUpdate:  mu: -0.138300606  nElectrons: 416.000000  magneticMoment: [ Abs: 0.21315  Tot: +0.00093 ]
LCAOMinimize: Iter:   8  F: -1427.9816635949414376  |grad|_K:  1.321e-04  alpha:  1.675e-01  linmin: -3.439e-06  cgtest:  9.963e-01  t[s]:   1263.11
	FillingsUpdate:  mu: -0.127503688  nElectrons: 416.000000  magneticMoment: [ Abs: 0.18388  Tot: +0.00092 ]
LCAOMinimize: Iter:   9  F: -1427.9851346520142670  |grad|_K:  2.229e-05  alpha:  1.950e-01  linmin:  1.933e-02  cgtest: -5.895e-02  t[s]:   1391.36
LCAOMinimize: 	Predicted alpha/alphaT>3.000000, increasing alphaT to 5.850554e-01.
	FillingsUpdate:  mu: -0.126755265  nElectrons: 416.000000  magneticMoment: [ Abs: 0.08008  Tot: +0.00026 ]
LCAOMinimize: Iter:  10  F: -1427.9855241782827306  |grad|_K:  3.277e-06  alpha:  7.742e-01  linmin:  7.378e-03  cgtest:  1.207e-01  t[s]:   1555.48
	FillingsUpdate:  mu: -0.127087325  nElectrons: 416.000000  magneticMoment: [ Abs: 0.05905  Tot: +0.00017 ]
LCAOMinimize: Iter:  11  F: -1427.9855283053245785  |grad|_K:  2.568e-06  alpha:  3.763e-01  linmin:  2.310e-05  cgtest:  3.246e-04  t[s]:   1683.02
	FillingsUpdate:  mu: -0.126957923  nElectrons: 416.000000  magneticMoment: [ Abs: 0.02443  Tot: +0.00004 ]
LCAOMinimize: Iter:  12  F: -1427.9855314163928597  |grad|_K:  6.087e-07  alpha:  4.616e-01  linmin:  4.665e-04  cgtest: -3.221e-03  t[s]:   1811.18
	FillingsUpdate:  mu: -0.126956231  nElectrons: 416.000000  magneticMoment: [ Abs: 0.00253  Tot: -0.00001 ]
LCAOMinimize: Iter:  13  F: -1427.9855318156498925  |grad|_K:  1.107e-07  alpha:  1.055e+00  linmin: -3.640e-04  cgtest:  4.490e-03  t[s]:   1938.49
	FillingsUpdate:  mu: -0.126961982  nElectrons: 416.000000  magneticMoment: [ Abs: 0.00085  Tot: -0.00000 ]
LCAOMinimize: Iter:  14  F: -1427.9855318267100301  |grad|_K:  6.956e-08  alpha:  8.840e-01  linmin:  3.024e-04  cgtest: -1.061e-03  t[s]:   2065.66
LCAOMinimize: Converged (|Delta F|<1.000000e-06 for 2 iters).
----- createFluidSolver() ----- (Fluid-side solver setup)
   Initializing fluid molecule 'H2O'
     Initializing site 'O'
       Electron density: proportional to exp(-r/0.36935)*erfc((r-0.51523)/0.36823) with norm 6.826
       Charge density: gaussian nuclear width 0.478731 with net site charge 0.826
       Polarizability: cuspless exponential with width 0.32 and norm 3.73
       Hard sphere radius: 2.57003 bohrs
       Positions in reference frame:
         [ +0.000000 +0.000000 +0.000000 ]
     Initializing site 'H'
       Electron density: proportional to exp(-r/0.34641)*erfc((r-0)/0.390882) with norm 0.587
       Charge density: gaussian nuclear width 0.377945 with net site charge -0.413
       Polarizability: cuspless exponential with width 0.39 and norm 3.3
       Positions in reference frame:
         [ +0.000000 -1.441945 +1.122523 ]
         [ +0.000000 +1.441945 +1.122523 ]
     Net charge: 0   dipole magnitude: 0.927204
     Initializing spherical shell mfKernel with radius 2.61727 Bohr
     deltaS corrections:
       site 'O': -7.54299
       site 'H': -6.83917
   Initializing fluid molecule 'Na+'
     Initializing site 'Na'
       Electron density: proportional to exp(-r/0.19682)*erfc((r-0.71491)/0.41314) with norm 8.1383
       Charge density: gaussian nuclear width 0.365347 with net site charge -1
       Hard sphere radius: 1.86327 bohrs
       Positions in reference frame:
         [ +0.000000 +0.000000 +0.000000 ]
     Net charge: -1   dipole magnitude: 0
     Initializing gaussian mfKernel with width: 1.55004 Bohr
     deltaS corrections:
       site 'Na': -22.3555
   Initializing fluid molecule 'F-'
     Initializing site 'F'
       Electron density: proportional to exp(-r/0.38886)*erfc((r-0)/0.438782) with norm 8
       Charge density: gaussian nuclear width 0.374796 with net site charge 1
       Hard sphere radius: 2.39995 bohrs
       Positions in reference frame:
         [ +0.000000 +0.000000 +0.000000 ]
     Net charge: 1   dipole magnitude: 0
     Initializing gaussian mfKernel with width: 1.59012 Bohr
     deltaS corrections:
       site 'F': -9.04335

Correction to mu due to finite nuclear width = -0.0120641
   Cavity determined by nc: 0.00142 and sigma: 0.707107
   Nonlocal vdW cavity from gaussian model electron density with norm = 8 and sigma = 0.993594 bohr
   Charge asymmetry in cavity with sensitivity pCavity = 36.5 e-bohr/Eh
   Electrostatic cavity expanded by eta = 1.46 bohrs
   Weighted density cavitation model constrained by Nbulk: 0.0049383 bohr^-3, Pvap: 3.14029 kPa, Rvdw: 2.61727 bohr and sigmaBulk: 4.62e-05 Eh/bohr^2 at T: 298 K.
   Weighted density dispersion model using vdW pair potentials with single solvent site with sqrtC6eff: 0.77 SI.


---- Citations for features of the code used in this run ----

   Software package:
      R. Sundararaman, K. Letchworth-Weaver, K.A. Schwarz, D. Gunceler, Y. Ozhabes and T.A. Arias, 'JDFTx: software for joint density-functional theory', SoftwareX 6, 278 (2017)

   gga-PBE exchange-correlation functional:
      J.P. Perdew, K. Burke and M. Ernzerhof, Phys. Rev. Lett. 77, 3865 (1996)

   Pseudopotentials:
      KF Garrity, JW Bennett, KM Rabe and D Vanderbilt, Comput. Mater. Sci. 81, 446 (2014)

   Truncated Coulomb potentials:
      R. Sundararaman and T.A. Arias, Phys. Rev. B 87, 165122 (2013)

   Van der Waals correction pair-potentials:
      S. Grimme, J. Comput. Chem. 27, 1787 (2006)

   Charge-asymmetric nonlocally-determined local-electric (CANDLE) solvation model:
      R. Sundararaman and W.A. Goddard III, J. Chem. Phys. 142, 064107 (2015)

   Total energy minimization with Auxiliary Hamiltonian:
      C. Freysoldt, S. Boeck, and J. Neugebauer, Phys. Rev. B 79, 241103(R) (2009)

This list may not be complete. Please suggest additional citations or
report any other bugs at https://github.com/shankar1729/jdftx/issues

Initialization completed successfully at t[s]:   2083.51

Fluid solver invoked on fresh (partially random / LCAO) wavefunctions
Running a vacuum solve first:

-------- Initial electronic minimization -----------
	FillingsUpdate:  mu: -0.126961982  nElectrons: 416.000000  magneticMoment: [ Abs: 0.00085  Tot: -0.00000 ]
ElecMinimize: Iter:   0  F: -1427.985531826713441  |grad|_K:  6.766e-05  alpha:  1.000e+00
	FillingsUpdate:  mu: -0.029749170  nElectrons: 416.000000  magneticMoment: [ Abs: 0.00045  Tot: +0.00000 ]
	SubspaceRotationAdjust: set factor to 1
ElecMinimize: Iter:   1  F: -1429.553252270282883  |grad|_K:  3.475e-05  alpha:  7.763e-01  linmin: -1.745e-05  t[s]:   2371.15
	FillingsUpdate:  mu: -0.092750789  nElectrons: 416.000000  magneticMoment: [ Abs: 0.00027  Tot: +0.00000 ]
	SubspaceRotationAdjust: set factor to 0.737
ElecMinimize: Iter:   2  F: -1429.797627845746092  |grad|_K:  2.560e-05  alpha:  4.683e-01  linmin:  4.025e-05  t[s]:   2546.46
	FillingsUpdate:  mu: -0.057982175  nElectrons: 416.000000  magneticMoment: [ Abs: 0.00018  Tot: +0.00000 ]
	SubspaceRotationAdjust: set factor to 0.505
ElecMinimize: Iter:   3  F: -1429.902574724948863  |grad|_K:  1.214e-05  alpha:  3.592e-01  linmin:  4.641e-05  t[s]:   2721.23
	FillingsUpdate:  mu: -0.066599236  nElectrons: 416.000000  magneticMoment: [ Abs: 0.00014  Tot: +0.00000 ]
	SubspaceRotationAdjust: set factor to 0.567
ElecMinimize: Iter:   4  F: -1429.938079190464350  |grad|_K:  7.522e-06  alpha:  5.491e-01  linmin:  3.503e-05  t[s]:   2896.46
	FillingsUpdate:  mu: -0.074295380  nElectrons: 416.000000  magneticMoment: [ Abs: 0.00011  Tot: +0.00000 ]
	SubspaceRotationAdjust: set factor to 0.611
ElecMinimize: Iter:   5  F: -1429.952083668990326  |grad|_K:  4.517e-06  alpha:  5.639e-01  linmin:  2.992e-05  t[s]:   3072.49
	FillingsUpdate:  mu: -0.068856216  nElectrons: 416.000000  magneticMoment: [ Abs: 0.00008  Tot: +0.00000 ]
	SubspaceRotationAdjust: set factor to 0.655
ElecMinimize: Iter:   6  F: -1429.957171667872444  |grad|_K:  2.912e-06  alpha:  5.657e-01  linmin:  1.463e-05  t[s]:   3247.98
	FillingsUpdate:  mu: -0.070165579  nElectrons: 416.000000  magneticMoment: [ Abs: 0.00006  Tot: +0.00000 ]
	SubspaceRotationAdjust: set factor to 0.842
ElecMinimize: Iter:   7  F: -1429.959313933360136  |grad|_K:  1.782e-06  alpha:  5.730e-01  linmin:  5.637e-06  t[s]:   3423.53
	FillingsUpdate:  mu: -0.071304964  nElectrons: 416.000000  magneticMoment: [ Abs: 0.00003  Tot: +0.00000 ]
	SubspaceRotationAdjust: set factor to 0.92
ElecMinimize: Iter:   8  F: -1429.960050550021379  |grad|_K:  1.033e-06  alpha:  5.252e-01  linmin:  2.888e-06  t[s]:   3599.05
	FillingsUpdate:  mu: -0.070058381  nElectrons: 416.000000  magneticMoment: [ Abs: 0.00002  Tot: +0.00000 ]
	SubspaceRotationAdjust: set factor to 0.791
ElecMinimize: Iter:   9  F: -1429.960279289678510  |grad|_K:  7.314e-07  alpha:  4.838e-01  linmin:  2.469e-06  t[s]:   3774.40
	FillingsUpdate:  mu: -0.071094089  nElectrons: 416.000000  magneticMoment: [ Abs: 0.00001  Tot: +0.00000 ]
	SubspaceRotationAdjust: set factor to 0.667
ElecMinimize: Iter:  10  F: -1429.960380310224537  |grad|_K:  4.025e-07  alpha:  4.269e-01  linmin:  2.178e-06  t[s]:   3949.78
	FillingsUpdate:  mu: -0.070954186  nElectrons: 416.000000  magneticMoment: [ Abs: 0.00001  Tot: -0.00000 ]
	SubspaceRotationAdjust: set factor to 0.766
ElecMinimize: Iter:  11  F: -1429.960420654049813  |grad|_K:  2.663e-07  alpha:  5.633e-01  linmin:  2.273e-06  t[s]:   4124.68
	FillingsUpdate:  mu: -0.070862884  nElectrons: 416.000000  magneticMoment: [ Abs: 0.00001  Tot: -0.00000 ]
	SubspaceRotationAdjust: set factor to 0.9
ElecMinimize: Iter:  12  F: -1429.960437227966850  |grad|_K:  1.767e-07  alpha:  5.285e-01  linmin:  8.029e-07  t[s]:   4300.90
	FillingsUpdate:  mu: -0.071064640  nElectrons: 416.000000  magneticMoment: [ Abs: 0.00001  Tot: -0.00000 ]
	SubspaceRotationAdjust: set factor to 0.863
ElecMinimize: Iter:  13  F: -1429.960444827802348  |grad|_K:  1.223e-07  alpha:  5.499e-01  linmin:  9.961e-07  t[s]:   4476.51
	FillingsUpdate:  mu: -0.070910305  nElectrons: 416.000000  magneticMoment: [ Abs: 0.00001  Tot: -0.00000 ]
	SubspaceRotationAdjust: set factor to 0.758
ElecMinimize: Iter:  14  F: -1429.960447744974999  |grad|_K:  7.624e-08  alpha:  4.407e-01  linmin:  1.375e-07  t[s]:   4651.47
	FillingsUpdate:  mu: -0.070953015  nElectrons: 416.000000  magneticMoment: [ Abs: 0.00001  Tot: +0.00000 ]
	SubspaceRotationAdjust: set factor to 0.781
ElecMinimize: Iter:  15  F: -1429.960449121723059  |grad|_K:  4.808e-08  alpha:  5.348e-01  linmin:  2.979e-07  t[s]:   4826.53
	FillingsUpdate:  mu: -0.070955454  nElectrons: 416.000000  magneticMoment: [ Abs: 0.00000  Tot: +0.00000 ]
	SubspaceRotationAdjust: set factor to 0.875
ElecMinimize: Iter:  16  F: -1429.960449763017778  |grad|_K:  3.612e-08  alpha:  6.267e-01  linmin:  1.948e-07  t[s]:   5001.80
	FillingsUpdate:  mu: -0.070926385  nElectrons: 416.000000  magneticMoment: [ Abs: 0.00000  Tot: +0.00000 ]
	SubspaceRotationAdjust: set factor to 0.922
ElecMinimize: Iter:  17  F: -1429.960450085501179  |grad|_K:  2.632e-08  alpha:  5.582e-01  linmin:  7.328e-08  t[s]:   5177.36
	FillingsUpdate:  mu: -0.070952841  nElectrons: 416.000000  magneticMoment: [ Abs: 0.00000  Tot: +0.00000 ]
	SubspaceRotationAdjust: set factor to 0.892
ElecMinimize: Iter:  18  F: -1429.960450250317763  |grad|_K:  1.840e-08  alpha:  5.371e-01  linmin:  2.210e-08  t[s]:   5353.24
	FillingsUpdate:  mu: -0.070935691  nElectrons: 416.000000  magneticMoment: [ Abs: 0.00000  Tot: +0.00000 ]
	SubspaceRotationAdjust: set factor to 0.81
ElecMinimize: Iter:  19  F: -1429.960450325329475  |grad|_K:  1.252e-08  alpha:  5.001e-01  linmin: -1.150e-08  t[s]:   5528.52
	FillingsUpdate:  mu: -0.070947842  nElectrons: 416.000000  magneticMoment: [ Abs: 0.00000  Tot: -0.00000 ]
	SubspaceRotationAdjust: set factor to 0.809
ElecMinimize: Iter:  20  F: -1429.960450363982318  |grad|_K:  8.420e-09  alpha:  5.568e-01  linmin:  4.685e-08  t[s]:   5704.28
	FillingsUpdate:  mu: -0.070945882  nElectrons: 416.000000  magneticMoment: [ Abs: 0.00000  Tot: -0.00000 ]
	SubspaceRotationAdjust: set factor to 0.925
ElecMinimize: Iter:  21  F: -1429.960450381085138  |grad|_K:  5.850e-09  alpha:  5.457e-01  linmin:  4.779e-08  t[s]:   5879.62
	FillingsUpdate:  mu: -0.070944727  nElectrons: 416.000000  magneticMoment: [ Abs: 0.00000  Tot: -0.00000 ]
	SubspaceRotationAdjust: set factor to 1.06
ElecMinimize: Iter:  22  F: -1429.960450389528205  |grad|_K:  4.008e-09  alpha:  5.577e-01  linmin:  1.020e-07  t[s]:   6055.01
	FillingsUpdate:  mu: -0.070947954  nElectrons: 416.000000  magneticMoment: [ Abs: 0.00000  Tot: -0.00000 ]
	SubspaceRotationAdjust: set factor to 1.04
ElecMinimize: Iter:  23  F: -1429.960450393169367  |grad|_K:  2.682e-09  alpha:  5.135e-01  linmin:  3.233e-08  t[s]:   6230.79
ElecMinimize: Converged (|Delta F|<1.000000e-08 for 2 iters).
Setting wave functions to eigenvectors of Hamiltonian
Vacuum energy after initial minimize, F = -1429.960450393169367

	Linear fluid (dielectric constant: 78.4, screening length: 5.74355 Bohr) occupying 0.754637 of unit cell:	Completed after 13 iterations at t[s]:   6269.10

-------- Electronic minimization -----------
	Linear fluid (dielectric constant: 78.4, screening length: 5.74355 Bohr) occupying 0.754637 of unit cell:	Completed after 0 iterations at t[s]:   6309.36
	FillingsUpdate:  mu: -0.169010021  nElectrons: 416.000000  magneticMoment: [ Abs: 0.00000  Tot: -0.00000 ]
ElecMinimize: Iter:   0  F: -1429.952816179173396  |grad|_K:  5.632e-07  alpha:  1.000e+00
	Linear fluid (dielectric constant: 78.4, screening length: 5.74355 Bohr) occupying 0.755167 of unit cell:	Completed after 9 iterations at t[s]:   6447.22
	Linear fluid (dielectric constant: 78.4, screening length: 5.74355 Bohr) occupying 0.755090 of unit cell:	Completed after 5 iterations at t[s]:   6502.13
	FillingsUpdate:  mu: -0.167361962  nElectrons: 416.000000  magneticMoment: [ Abs: 0.00002  Tot: -0.00000 ]
	SubspaceRotationAdjust: set factor to 0.776
ElecMinimize: Iter:   1  F: -1429.952934834768712  |grad|_K:  3.189e-07  alpha:  8.499e-01  linmin: -1.502e-06  t[s]:   6577.64
	Linear fluid (dielectric constant: 78.4, screening length: 5.74355 Bohr) occupying 0.755235 of unit cell:	Completed after 9 iterations at t[s]:   6633.54
	Linear fluid (dielectric constant: 78.4, screening length: 5.74355 Bohr) occupying 0.755133 of unit cell:	Completed after 8 iterations at t[s]:   6688.16
	FillingsUpdate:  mu: -0.167971638  nElectrons: 416.000000  magneticMoment: [ Abs: 0.00002  Tot: -0.00000 ]
	SubspaceRotationAdjust: set factor to 0.426
ElecMinimize: Iter:   2  F: -1429.952946392508920  |grad|_K:  1.498e-07  alpha:  2.491e-01  linmin: -2.342e-07  t[s]:   6764.78
	Linear fluid (dielectric constant: 78.4, screening length: 5.74355 Bohr) occupying 0.755148 of unit cell:	Completed after 2 iterations at t[s]:   6820.03
	Linear fluid (dielectric constant: 78.4, screening length: 5.74355 Bohr) occupying 0.755172 of unit cell:	Completed after 2 iterations at t[s]:   6873.16
	FillingsUpdate:  mu: -0.167992532  nElectrons: 416.000000  magneticMoment: [ Abs: 0.00002  Tot: -0.00000 ]
	SubspaceRotationAdjust: set factor to 0.619
ElecMinimize: Iter:   3  F: -1429.952953726007763  |grad|_K:  8.109e-08  alpha:  6.784e-01  linmin: -2.671e-05  t[s]:   6948.49
	Linear fluid (dielectric constant: 78.4, screening length: 5.74355 Bohr) occupying 0.755190 of unit cell:	Completed after 3 iterations at t[s]:   7003.34
	Linear fluid (dielectric constant: 78.4, screening length: 5.74355 Bohr) occupying 0.755196 of unit cell:	Completed after 0 iterations at t[s]:   7055.80
	FillingsUpdate:  mu: -0.167896155  nElectrons: 416.000000  magneticMoment: [ Abs: 0.00001  Tot: -0.00000 ]
	SubspaceRotationAdjust: set factor to 0.628
ElecMinimize: Iter:   4  F: -1429.952956664519434  |grad|_K:  5.580e-08  alpha:  8.970e-01  linmin: -6.280e-05  t[s]:   7130.83
	Linear fluid (dielectric constant: 78.4, screening length: 5.74355 Bohr) occupying 0.755201 of unit cell:	Completed after 2 iterations at t[s]:   7185.49
	Linear fluid (dielectric constant: 78.4, screening length: 5.74355 Bohr) occupying 0.755199 of unit cell:	Completed after 0 iterations at t[s]:   7237.63
	FillingsUpdate:  mu: -0.167880096  nElectrons: 416.000000  magneticMoment: [ Abs: 0.00001  Tot: -0.00000 ]
	SubspaceRotationAdjust: set factor to 0.722
ElecMinimize: Iter:   5  F: -1429.952957609730674  |grad|_K:  3.630e-08  alpha:  6.324e-01  linmin:  9.017e-06  t[s]:   7312.69
	Linear fluid (dielectric constant: 78.4, screening length: 5.74355 Bohr) occupying 0.755195 of unit cell:	Completed after 0 iterations at t[s]:   7367.06
	Linear fluid (dielectric constant: 78.4, screening length: 5.74355 Bohr) occupying 0.755196 of unit cell:	Completed after 0 iterations at t[s]:   7418.71
	FillingsUpdate:  mu: -0.167879436  nElectrons: 416.000000  magneticMoment: [ Abs: 0.00001  Tot: -0.00000 ]
	SubspaceRotationAdjust: set factor to 0.801
ElecMinimize: Iter:   6  F: -1429.952957931067203  |grad|_K:  2.352e-08  alpha:  5.924e-01  linmin:  9.588e-08  t[s]:   7493.45
	Linear fluid (dielectric constant: 78.4, screening length: 5.74355 Bohr) occupying 0.755191 of unit cell:	Completed after 2 iterations at t[s]:   7547.95
	Linear fluid (dielectric constant: 78.4, screening length: 5.74355 Bohr) occupying 0.755193 of unit cell:	Completed after 0 iterations at t[s]:   7600.23
	FillingsUpdate:  mu: -0.167876889  nElectrons: 416.000000  magneticMoment: [ Abs: 0.00000  Tot: -0.00000 ]
	SubspaceRotationAdjust: set factor to 0.79
ElecMinimize: Iter:   7  F: -1429.952957963179642  |grad|_K:  1.862e-08  alpha:  3.100e-01  linmin: -9.332e-06  t[s]:   7674.90
	Linear fluid (dielectric constant: 78.4, screening length: 5.74355 Bohr) occupying 0.755191 of unit cell:	Completed after 0 iterations at t[s]:   7729.34
	Linear fluid (dielectric constant: 78.4, screening length: 5.74355 Bohr) occupying 0.755190 of unit cell:	Completed after 0 iterations at t[s]:   7780.56
	FillingsUpdate:  mu: -0.167876557  nElectrons: 416.000000  magneticMoment: [ Abs: 0.00000  Tot: -0.00000 ]
	SubspaceRotationAdjust: set factor to 0.924
ElecMinimize: Iter:   8  F: -1429.952958048579376  |grad|_K:  1.838e-08  alpha:  4.922e-01  linmin:  1.342e-07  t[s]:   7854.83
	Linear fluid (dielectric constant: 78.4, screening length: 5.74355 Bohr) occupying 0.755186 of unit cell:	Completed after 2 iterations at t[s]:   7909.67
	Linear fluid (dielectric constant: 78.4, screening length: 5.74355 Bohr) occupying 0.755189 of unit cell:	Completed after 0 iterations at t[s]:   7962.05
	FillingsUpdate:  mu: -0.167925803  nElectrons: 416.000000  magneticMoment: [ Abs: 0.00000  Tot: +0.00000 ]
	SubspaceRotationAdjust: set factor to 0.657
ElecMinimize: Iter:   9  F: -1429.952958055370573  |grad|_K:  3.468e-08  alpha:  1.231e-01  linmin:  2.623e-05  t[s]:   8036.57
	Linear fluid (dielectric constant: 78.4, screening length: 5.74355 Bohr) occupying 0.755186 of unit cell:	Completed after 0 iterations at t[s]:   8091.16
	Linear fluid (dielectric constant: 78.4, screening length: 5.74355 Bohr) occupying 0.755189 of unit cell:	Completed after 0 iterations at t[s]:   8142.34
	FillingsUpdate:  mu: -0.167925789  nElectrons: 416.000000  magneticMoment: [ Abs: 0.00000  Tot: +0.00000 ]
	SubspaceRotationAdjust: set factor to 0.508
ElecMinimize: Iter:  10  F: -1429.952958056173884  |grad|_K:  3.064e-08  alpha:  1.209e-02  linmin: -3.050e-08  t[s]:   8217.20
ElecMinimize: Converged (|Delta F|<1.000000e-08 for 2 iters).
Setting wave functions to eigenvectors of Hamiltonian
Single-point solvation energy estimate, DeltaF = +0.007492336995483

# Ionic positions in lattice coordinates:
ion W   0.083329983604167   0.166670001854167   0.500000009000000 1
ion W   0.333329983604167   0.166670001854167   0.500000009000000 1
ion W   0.583329983604167   0.166670001854167   0.500000009000000 1
ion W   0.833329983604167   0.166670001854167   0.500000009000000 1
ion W   0.083329983604167   0.416670001854167   0.500000009000000 1
ion W   0.333329983604167   0.416670001854167   0.500000009000000 1
ion W   0.583329983604167   0.416670001854167   0.500000009000000 1
ion W   0.833329983604167   0.416670001854167   0.500000009000000 1
ion W   0.083329983604167   0.666670001854167   0.500000009000000 1
ion W   0.333329983604167   0.666670001854167   0.500000009000000 1
ion W   0.583329983604167   0.666670001854167   0.500000009000000 1
ion W   0.833329983604167   0.666670001854167   0.500000009000000 1
ion W   0.083329983604167   0.916670001854167   0.500000009000000 1
ion W   0.333329983604167   0.916670001854167   0.500000009000000 1
ion W   0.583329983604167   0.916670001854167   0.500000009000000 1
ion W   0.833329983604167   0.916670001854167   0.500000009000000 1
ion S   0.166670002135418   0.083329983322917   0.413270002500002 1
ion S   0.166670002135418   0.083329983322917   0.586730015499998 1
ion S   0.416670002135417   0.083329983322917   0.413270002500002 1
ion S   0.416670002135417   0.083329983322917   0.586730015499998 1
ion S   0.666670002135417   0.083329983322917   0.413270002500002 1
ion S   0.666670002135417   0.083329983322917   0.586730015499998 1
ion S   0.916670002135417   0.083329983322917   0.413270002500002 1
ion S   0.916670002135417   0.083329983322917   0.586730015499998 1
ion S   0.166670002135417   0.333329983322917   0.413270002500002 1
ion S   0.166670002135417   0.333329983322917   0.586730015499998 1
ion S   0.416670002135417   0.333329983322917   0.413270002500002 1
ion S   0.416670002135417   0.333329983322917   0.586730015499998 1
ion S   0.666670002135417   0.333329983322917   0.413270002500002 1
ion S   0.666670002135417   0.333329983322917   0.586730015499998 1
ion S   0.916670002135417   0.333329983322917   0.413270002500002 1
ion S   0.916670002135417   0.333329983322917   0.586730015499998 1
ion S   0.166670002135417   0.583329983322917   0.413270002500002 1
ion S   0.166670002135417   0.583329983322917   0.586730015499998 1
ion S   0.416670002135417   0.583329983322917   0.413270002500002 1
ion S   0.416670002135417   0.583329983322917   0.586730015499998 1
ion S   0.666670002135417   0.583329983322917   0.413270002500002 1
ion S   0.666670002135417   0.583329983322917   0.586730015499998 1
ion S   0.916670002135417   0.583329983322917   0.413270002500002 1
ion S   0.916670002135417   0.583329983322917   0.586730015499998 1
ion S   0.166670002135417   0.833329983322917   0.413270002500002 1
ion S   0.166670002135417   0.833329983322917   0.586730015499998 1
ion S   0.416670002135417   0.833329983322917   0.413270002500002 1
ion S   0.416670002135417   0.833329983322917   0.586730015499998 1
ion S   0.666670002135417   0.833329983322917   0.413270002500002 1
ion S   0.666670002135417   0.833329983322917   0.586730015499998 1
ion S   0.916670002135417   0.833329983322917   0.413270002500002 1
ion S   0.916670002135417   0.833329983322917   0.586730015499998 1


# Forces in Lattice coordinates:
force W   0.001244058857819  -0.001244058857819   0.000000000000000 1
force W   0.001244058857819  -0.001244058857819  -0.000000000000000 1
force W   0.001244058857819  -0.001244058857819  -0.000000000000000 1
force W   0.001244058857819  -0.001244058857819   0.000000000000000 1
force W   0.001244058857819  -0.001244058857819   0.000000000000000 1
force W   0.001244058857819  -0.001244058857819  -0.000000000000000 1
force W   0.001244058857819  -0.001244058857819  -0.000000000000000 1
force W   0.001244058857819  -0.001244058857819  -0.000000000000000 1
force W   0.001244058857819  -0.001244058857819  -0.000000000000000 1
force W   0.001244058857819  -0.001244058857819   0.000000000000000 1
force W   0.001244058857819  -0.001244058857819  -0.000000000000000 1
force W   0.001244058857819  -0.001244058857819  -0.000000000000000 1
force W   0.001244058857819  -0.001244058857819  -0.000000000000000 1
force W   0.001244058857819  -0.001244058857819   0.000000000000000 1
force W   0.001244058857819  -0.001244058857819   0.000000000000000 1
force W   0.001244058857819  -0.001244058857819   0.000000000000000 1
force S  -0.000606114675443   0.000606114675443  -0.038111799328634 1
force S  -0.000606114675443   0.000606114675443   0.038111799328747 1
force S  -0.000606114675443   0.000606114675443  -0.038111799328634 1
force S  -0.000606114675443   0.000606114675443   0.038111799328633 1
force S  -0.000606114675443   0.000606114675443  -0.038111799328975 1
force S  -0.000606114675443   0.000606114675443   0.038111799328748 1
force S  -0.000606114675443   0.000606114675443  -0.038111799328977 1
force S  -0.000606114675443   0.000606114675443   0.038111799328747 1
force S  -0.000606114675443   0.000606114675443  -0.038111799328520 1
force S  -0.000606114675443   0.000606114675443   0.038111799328749 1
force S  -0.000606114675443   0.000606114675443  -0.038111799328633 1
force S  -0.000606114675443   0.000606114675443   0.038111799328406 1
force S  -0.000606114675443   0.000606114675443  -0.038111799328862 1
force S  -0.000606114675443   0.000606114675443   0.038111799328634 1
force S  -0.000606114675443   0.000606114675443  -0.038111799328520 1
force S  -0.000606114675443   0.000606114675443   0.038111799328635 1
force S  -0.000606114675443   0.000606114675443  -0.038111799328634 1
force S  -0.000606114675443   0.000606114675443   0.038111799328634 1
force S  -0.000606114675443   0.000606114675443  -0.038111799328746 1
force S  -0.000606114675443   0.000606114675443   0.038111799328520 1
force S  -0.000606114675443   0.000606114675443  -0.038111799328862 1
force S  -0.000606114675443   0.000606114675443   0.038111799328862 1
force S  -0.000606114675443   0.000606114675443  -0.038111799328748 1
force S  -0.000606114675443   0.000606114675443   0.038111799328635 1
force S  -0.000606114675443   0.000606114675443  -0.038111799328633 1
force S  -0.000606114675443   0.000606114675443   0.038111799328633 1
force S  -0.000606114675443   0.000606114675443  -0.038111799328747 1
force S  -0.000606114675443   0.000606114675443   0.038111799328292 1
force S  -0.000606114675443   0.000606114675443  -0.038111799328749 1
force S  -0.000606114675443   0.000606114675443   0.038111799328520 1
force S  -0.000606114675443   0.000606114675443  -0.038111799328633 1
force S  -0.000606114675443   0.000606114675443   0.038111799328521 1

# Energy components:
   A_diel =        0.0073516768003654
   Eewald =     8745.7662873743483942
       EH =     9900.8200502101444727
     Eloc =   -20160.4622114889680233
      Enl =     -179.1423470180224058
      Exc =     -465.5384425953943719
 Exc_core =      230.1593000940038394
       KE =      498.4370800786844029
-------------------------------------
     Etot =    -1429.9529316684013338
       TS =        0.0000263877725215
-------------------------------------
        F =    -1429.9529580561738840

IonicMinimize: Iter:   0  F: -1429.952958056173884  |grad|_K:  5.245e-04  t[s]:   8246.35

#--- Lowdin population analysis ---
# oxidation-state W -0.536 -0.536 -0.536 -0.536 -0.536 -0.536 -0.536 -0.536 -0.536 -0.536 -0.536 -0.536 -0.536 -0.536 -0.536 -0.536
# magnetic-moments W -0.000 -0.000 -0.000 -0.000 -0.000 -0.000 -0.000 -0.000 -0.000 -0.000 -0.000 -0.000 -0.000 -0.000 -0.000 -0.000
# oxidation-state S +0.336 +0.336 +0.336 +0.336 +0.336 +0.336 +0.336 +0.336 +0.336 +0.336 +0.336 +0.336 +0.336 +0.336 +0.336 +0.336 +0.336 +0.336 +0.336 +0.336 +0.336 +0.336 +0.336 +0.336 +0.336 +0.336 +0.336 +0.336 +0.336 +0.336 +0.336 +0.336
# magnetic-moments S +0.000 +0.000 +0.000 +0.000 +0.000 +0.000 +0.000 +0.000 +0.000 +0.000 +0.000 +0.000 +0.000 +0.000 +0.000 +0.000 +0.000 +0.000 +0.000 +0.000 +0.000 +0.000 +0.000 +0.000 +0.000 +0.000 +0.000 +0.000 +0.000 +0.000 +0.000 +0.000

	Linear fluid (dielectric constant: 78.4, screening length: 5.74355 Bohr) occupying 0.755154 of unit cell:	Completed after 6 iterations at t[s]:   8302.95

-------- Electronic minimization -----------
	Linear fluid (dielectric constant: 78.4, screening length: 5.74355 Bohr) occupying 0.755154 of unit cell:	Completed after 0 iterations at t[s]:   8343.12
	FillingsUpdate:  mu: -0.167455074  nElectrons: 416.000000  magneticMoment: [ Abs: 0.00001  Tot: -0.00000 ]
ElecMinimize: Iter:   0  F: -1429.952977400017517  |grad|_K:  2.391e-07  alpha:  1.000e+00
	Linear fluid (dielectric constant: 78.4, screening length: 5.74355 Bohr) occupying 0.755145 of unit cell:	Completed after 9 iterations at t[s]:   8481.00
	Linear fluid (dielectric constant: 78.4, screening length: 5.74355 Bohr) occupying 0.755151 of unit cell:	Completed after 8 iterations at t[s]:   8535.91
	FillingsUpdate:  mu: -0.168010360  nElectrons: 416.000000  magneticMoment: [ Abs: 0.00001  Tot: -0.00000 ]
	SubspaceRotationAdjust: set factor to 0.481
ElecMinimize: Iter:   1  F: -1429.952987380703462  |grad|_K:  9.678e-08  alpha:  3.910e-01  linmin:  3.326e-05  t[s]:   8612.36
	Linear fluid (dielectric constant: 78.4, screening length: 5.74355 Bohr) occupying 0.755153 of unit cell:	Completed after 2 iterations at t[s]:   8666.90
	Linear fluid (dielectric constant: 78.4, screening length: 5.74355 Bohr) occupying 0.755156 of unit cell:	Completed after 2 iterations at t[s]:   8719.93
	FillingsUpdate:  mu: -0.167931493  nElectrons: 416.000000  magneticMoment: [ Abs: 0.00001  Tot: -0.00000 ]
	SubspaceRotationAdjust: set factor to 0.772
ElecMinimize: Iter:   2  F: -1429.952990809816811  |grad|_K:  6.120e-08  alpha:  8.094e-01  linmin: -1.703e-04  t[s]:   8795.01
	Linear fluid (dielectric constant: 78.4, screening length: 5.74355 Bohr) occupying 0.755160 of unit cell:	Completed after 3 iterations at t[s]:   8849.86
	Linear fluid (dielectric constant: 78.4, screening length: 5.74355 Bohr) occupying 0.755159 of unit cell:	Completed after 0 iterations at t[s]:   8902.65
	FillingsUpdate:  mu: -0.167849797  nElectrons: 416.000000  magneticMoment: [ Abs: 0.00000  Tot: -0.00000 ]
	SubspaceRotationAdjust: set factor to 0.908
ElecMinimize: Iter:   3  F: -1429.952991861308419  |grad|_K:  4.254e-08  alpha:  6.099e-01  linmin:  1.900e-05  t[s]:   8977.55
	Linear fluid (dielectric constant: 78.4, screening length: 5.74355 Bohr) occupying 0.755160 of unit cell:	Completed after 1 iterations at t[s]:   9032.26
	Linear fluid (dielectric constant: 78.4, screening length: 5.74355 Bohr) occupying 0.755160 of unit cell:	Completed after 0 iterations at t[s]:   9084.25
	FillingsUpdate:  mu: -0.167910014  nElectrons: 416.000000  magneticMoment: [ Abs: 0.00000  Tot: -0.00000 ]
	SubspaceRotationAdjust: set factor to 0.67
ElecMinimize: Iter:   4  F: -1429.952992153381274  |grad|_K:  2.942e-08  alpha:  3.721e-01  linmin:  2.612e-05  t[s]:   9159.28
	Linear fluid (dielectric constant: 78.4, screening length: 5.74355 Bohr) occupying 0.755160 of unit cell:	Completed after 2 iterations at t[s]:   9214.52
	Linear fluid (dielectric constant: 78.4, screening length: 5.74355 Bohr) occupying 0.755160 of unit cell:	Completed after 0 iterations at t[s]:   9266.52
	FillingsUpdate:  mu: -0.167848461  nElectrons: 416.000000  magneticMoment: [ Abs: 0.00000  Tot: -0.00000 ]
	SubspaceRotationAdjust: set factor to 0.343
ElecMinimize: Iter:   5  F: -1429.952992198697757  |grad|_K:  1.777e-08  alpha:  1.856e-01  linmin:  2.375e-05  t[s]:   9341.42
	Linear fluid (dielectric constant: 78.4, screening length: 5.74355 Bohr) occupying 0.755160 of unit cell:	Completed after 0 iterations at t[s]:   9396.05
	Linear fluid (dielectric constant: 78.4, screening length: 5.74355 Bohr) occupying 0.755160 of unit cell:	Completed after 0 iterations at t[s]:   9448.34
	FillingsUpdate:  mu: -0.167849675  nElectrons: 416.000000  magneticMoment: [ Abs: 0.00000  Tot: -0.00000 ]
	SubspaceRotationAdjust: set factor to 0.391
ElecMinimize: Iter:   6  F: -1429.952992224642685  |grad|_K:  1.138e-08  alpha:  2.008e-01  linmin: -5.750e-05  t[s]:   9522.98
	Linear fluid (dielectric constant: 78.4, screening length: 5.74355 Bohr) occupying 0.755160 of unit cell:	Completed after 0 iterations at t[s]:   9577.57
ElecMinimize: 	Predicted alpha/alphaT>3.000000, increasing alphaT to 6.024117e-01.
	Linear fluid (dielectric constant: 78.4, screening length: 5.74355 Bohr) occupying 0.755159 of unit cell:	Completed after 1 iterations at t[s]:   9628.26
	Linear fluid (dielectric constant: 78.4, screening length: 5.74355 Bohr) occupying 0.755160 of unit cell:	Completed after 0 iterations at t[s]:   9680.48
ElecMinimize: 	Step increased F by 5.056563e-09, reducing alpha to 1.679430e-02.
	Linear fluid (dielectric constant: 78.4, screening length: 5.74355 Bohr) occupying 0.755160 of unit cell:	Completed after 0 iterations at t[s]:   9799.48
	FillingsUpdate:  mu: -0.167899967  nElectrons: 416.000000  magneticMoment: [ Abs: 0.00000  Tot: -0.00000 ]
	SubspaceRotationAdjust: set factor to 0.282
ElecMinimize: Iter:   7  F: -1429.952992235806505  |grad|_K:  1.519e-08  alpha:  1.679e-02  linmin:  6.521e-05  t[s]:   9875.07
	Linear fluid (dielectric constant: 78.4, screening length: 5.74355 Bohr) occupying 0.755160 of unit cell:	Completed after 0 iterations at t[s]:   9930.68
	Linear fluid (dielectric constant: 78.4, screening length: 5.74355 Bohr) occupying 0.755160 of unit cell:	Completed after 0 iterations at t[s]:   9982.17
	FillingsUpdate:  mu: -0.167899953  nElectrons: 416.000000  magneticMoment: [ Abs: 0.00000  Tot: -0.00000 ]
	SubspaceRotationAdjust: set factor to 0.26
ElecMinimize: Iter:   8  F: -1429.952992236828322  |grad|_K:  1.348e-08  alpha:  3.879e-02  linmin: -2.873e-06  t[s]:  10057.47
	Linear fluid (dielectric constant: 78.4, screening length: 5.74355 Bohr) occupying 0.755160 of unit cell:	Completed after 0 iterations at t[s]:  10112.24
ElecMinimize: 	Predicted alpha/alphaT>3.000000, increasing alphaT to 1.163725e-01.
	Linear fluid (dielectric constant: 78.4, screening length: 5.74355 Bohr) occupying 0.755160 of unit cell:	Completed after 0 iterations at t[s]:  10163.12
	Linear fluid (dielectric constant: 78.4, screening length: 5.74355 Bohr) occupying 0.755160 of unit cell:	Completed after 0 iterations at t[s]:  10213.85
	FillingsUpdate:  mu: -0.167900083  nElectrons: 416.000000  magneticMoment: [ Abs: 0.00000  Tot: -0.00000 ]
	SubspaceRotationAdjust: set factor to 0.256
ElecMinimize: Iter:   9  F: -1429.952992253330194  |grad|_K:  1.325e-08  alpha:  1.978e-01  linmin:  1.720e-07  t[s]:  10288.83
	Linear fluid (dielectric constant: 78.4, screening length: 5.74355 Bohr) occupying 0.755159 of unit cell:	Completed after 1 iterations at t[s]:  10343.57
	Linear fluid (dielectric constant: 78.4, screening length: 5.74355 Bohr) occupying 0.755160 of unit cell:	Completed after 0 iterations at t[s]:  10395.49
ElecMinimize: 	Step increased F by 3.218952e-08, reducing alpha to 3.569763e-03.
	Linear fluid (dielectric constant: 78.4, screening length: 5.74355 Bohr) occupying 0.755160 of unit cell:	Completed after 0 iterations at t[s]:  10514.59
ElecMinimize: 	Step increased F by 2.976572e-08, reducing alpha to 3.569763e-04.
	Linear fluid (dielectric constant: 78.4, screening length: 5.74355 Bohr) occupying 0.755160 of unit cell:	Completed after 0 iterations at t[s]:  10633.84
ElecMinimize: 	Step increased F by 2.955176e-08, reducing alpha to 3.569763e-05.
ElecMinimize: 	Step failed to reduce F after 3 attempts. Quitting step.
ElecMinimize: 	Undoing step.
	Linear fluid (dielectric constant: 78.4, screening length: 5.74355 Bohr) occupying 0.755160 of unit cell:	Completed after 0 iterations at t[s]:  10752.51
ElecMinimize: 	Step failed: resetting search direction.
	FillingsUpdate:  mu: -0.167871590  nElectrons: 416.000000  magneticMoment: [ Abs: 0.00000  Tot: -0.00000 ]
	SubspaceRotationAdjust: set factor to 0.197
ElecMinimize: Iter:  10  F: -1429.952992223800948  |grad|_K:  7.023e-09  alpha:  3.570e-05
	Linear fluid (dielectric constant: 78.4, screening length: 5.74355 Bohr) occupying 0.755160 of unit cell:	Completed after 0 iterations at t[s]:  10881.76
	Linear fluid (dielectric constant: 78.4, screening length: 5.74355 Bohr) occupying 0.755160 of unit cell:	Completed after 0 iterations at t[s]:  10932.75
	FillingsUpdate:  mu: -0.167871560  nElectrons: 416.000000  magneticMoment: [ Abs: 0.00000  Tot: -0.00000 ]
	SubspaceRotationAdjust: set factor to 0.254
ElecMinimize: Iter:  11  F: -1429.952992231158760  |grad|_K:  3.404e-09  alpha:  3.334e-01  linmin: -3.239e-06  t[s]:  11008.04
	Linear fluid (dielectric constant: 78.4, screening length: 5.74355 Bohr) occupying 0.755160 of unit cell:	Completed after 0 iterations at t[s]:  11062.93
	Linear fluid (dielectric constant: 78.4, screening length: 5.74355 Bohr) occupying 0.755159 of unit cell:	Completed after 0 iterations at t[s]:  11114.41
	FillingsUpdate:  mu: -0.167871505  nElectrons: 416.000000  magneticMoment: [ Abs: 0.00000  Tot: -0.00000 ]
	SubspaceRotationAdjust: set factor to 0.32
ElecMinimize: Iter:  12  F: -1429.952992234138947  |grad|_K:  2.881e-09  alpha:  5.797e-01  linmin:  1.111e-06  t[s]:  11189.28
ElecMinimize: Converged (|Delta F|<1.000000e-08 for 2 iters).
Setting wave functions to eigenvectors of Hamiltonian

# Ionic positions in lattice coordinates:
ion W   0.083331411118157   0.166668574385135   0.500000009000000 1
ion W   0.333331411118157   0.166668574385135   0.500000009000000 1
ion W   0.583331411118157   0.166668574385135   0.500000009000000 1
ion W   0.833331411118157   0.166668574385135   0.500000009000000 1
ion W   0.083331411118157   0.416668574385135   0.500000009000000 1
ion W   0.333331411118157   0.416668574385135   0.500000009000000 1
ion W   0.583331411118157   0.416668574385135   0.500000009000000 1
ion W   0.833331411118157   0.416668574385135   0.500000009000000 1
ion W   0.083331411118157   0.666668574385135   0.500000009000000 1
ion W   0.333331411118157   0.666668574385135   0.500000009000000 1
ion W   0.583331411118157   0.666668574385135   0.500000009000000 1
ion W   0.833331411118157   0.666668574385135   0.500000009000000 1
ion W   0.083331411118157   0.916668574385135   0.500000009000000 1
ion W   0.333331411118157   0.916668574385135   0.500000009000000 1
ion W   0.583331411118157   0.916668574385135   0.500000009000000 1
ion W   0.833331411118157   0.916668574385135   0.500000009000000 1
ion S   0.166669288378423   0.083330697057433   0.413237591295090 1
ion S   0.166669288378423   0.083330697057433   0.586762426704909 1
ion S   0.416669288378423   0.083330697057433   0.413237591295090 1
ion S   0.416669288378423   0.083330697057433   0.586762426704909 1
ion S   0.666669288378423   0.083330697057433   0.413237591295090 1
ion S   0.666669288378423   0.083330697057433   0.586762426704909 1
ion S   0.916669288378423   0.083330697057433   0.413237591295090 1
ion S   0.916669288378423   0.083330697057433   0.586762426704909 1
ion S   0.166669288378423   0.333330697057433   0.413237591295090 1
ion S   0.166669288378423   0.333330697057433   0.586762426704909 1
ion S   0.416669288378423   0.333330697057433   0.413237591295090 1
ion S   0.416669288378423   0.333330697057433   0.586762426704909 1
ion S   0.666669288378423   0.333330697057433   0.413237591295090 1
ion S   0.666669288378423   0.333330697057433   0.586762426704909 1
ion S   0.916669288378423   0.333330697057433   0.413237591295090 1
ion S   0.916669288378423   0.333330697057433   0.586762426704909 1
ion S   0.166669288378423   0.583330697057433   0.413237591295090 1
ion S   0.166669288378423   0.583330697057433   0.586762426704909 1
ion S   0.416669288378423   0.583330697057433   0.413237591295090 1
ion S   0.416669288378423   0.583330697057433   0.586762426704909 1
ion S   0.666669288378423   0.583330697057433   0.413237591295090 1
ion S   0.666669288378423   0.583330697057433   0.586762426704909 1
ion S   0.916669288378423   0.583330697057433   0.413237591295090 1
ion S   0.916669288378423   0.583330697057433   0.586762426704909 1
ion S   0.166669288378423   0.833330697057433   0.413237591295090 1
ion S   0.166669288378423   0.833330697057433   0.586762426704909 1
ion S   0.416669288378423   0.833330697057433   0.413237591295090 1
ion S   0.416669288378423   0.833330697057433   0.586762426704909 1
ion S   0.666669288378423   0.833330697057433   0.413237591295090 1
ion S   0.666669288378423   0.833330697057433   0.586762426704909 1
ion S   0.916669288378423   0.833330697057433   0.413237591295090 1
ion S   0.916669288378423   0.833330697057433   0.586762426704909 1


# Forces in Lattice coordinates:
force W   0.000838075923486  -0.000838075923486  -0.000000000000000 1
force W   0.000838075923486  -0.000838075923486   0.000000000000000 1
force W   0.000838075923486  -0.000838075923486  -0.000000000000000 1
force W   0.000838075923486  -0.000838075923486   0.000000000000000 1
force W   0.000838075923486  -0.000838075923486   0.000000000000000 1
force W   0.000838075923486  -0.000838075923486  -0.000000000000000 1
force W   0.000838075923486  -0.000838075923486   0.000000000000000 1
force W   0.000838075923486  -0.000838075923486   0.000000000000000 1
force W   0.000838075923486  -0.000838075923486  -0.000000000000000 1
force W   0.000838075923486  -0.000838075923486  -0.000000000000000 1
force W   0.000838075923486  -0.000838075923486  -0.000000000000000 1
force W   0.000838075923486  -0.000838075923486  -0.000000000000000 1
force W   0.000838075923486  -0.000838075923486   0.000000000000000 1
force W   0.000838075923486  -0.000838075923486  -0.000000000000000 1
force W   0.000838075923486  -0.000838075923486  -0.000000000000000 1
force W   0.000838075923486  -0.000838075923486   0.000000000000000 1
force S  -0.000402893086117   0.000402893086117  -0.028867787104190 1
force S  -0.000402893086117   0.000402893086117   0.028867787104301 1
force S  -0.000402893086117   0.000402893086117  -0.028867787104303 1
force S  -0.000402893086117   0.000402893086117   0.028867787104186 1
force S  -0.000402893086117   0.000402893086117  -0.028867787104188 1
force S  -0.000402893086117   0.000402893086117   0.028867787104301 1
force S  -0.000402893086117   0.000402893086117  -0.028867787104189 1
force S  -0.000402893086117   0.000402893086117   0.028867787104188 1
force S  -0.000402893086117   0.000402893086117  -0.028867787104192 1
force S  -0.000402893086117   0.000402893086117   0.028867787104186 1
force S  -0.000402893086117   0.000402893086117  -0.028867787104304 1
force S  -0.000402893086117   0.000402893086117   0.028867787104299 1
force S  -0.000402893086117   0.000402893086117  -0.028867787104077 1
force S  -0.000402893086117   0.000402893086117   0.028867787104414 1
force S  -0.000402893086117   0.000402893086117  -0.028867787104077 1
force S  -0.000402893086117   0.000402893086117   0.028867787104302 1
force S  -0.000402893086117   0.000402893086117  -0.028867787104192 1
force S  -0.000402893086117   0.000402893086117   0.028867787104300 1
force S  -0.000402893086117   0.000402893086117  -0.028867787104191 1
force S  -0.000402893086117   0.000402893086117   0.028867787104186 1
force S  -0.000402893086117   0.000402893086117  -0.028867787104305 1
force S  -0.000402893086117   0.000402893086117   0.028867787104299 1
force S  -0.000402893086117   0.000402893086117  -0.028867787104077 1
force S  -0.000402893086117   0.000402893086117   0.028867787104300 1
force S  -0.000402893086117   0.000402893086117  -0.028867787104191 1
force S  -0.000402893086117   0.000402893086117   0.028867787104300 1
force S  -0.000402893086117   0.000402893086117  -0.028867787104192 1
force S  -0.000402893086117   0.000402893086117   0.028867787104186 1
force S  -0.000402893086117   0.000402893086117  -0.028867787104191 1
force S  -0.000402893086117   0.000402893086117   0.028867787104299 1
force S  -0.000402893086117   0.000402893086117  -0.028867787104076 1
force S  -0.000402893086117   0.000402893086117   0.028867787104187 1

# Energy components:
   A_diel =        0.0073574606666839
   Eewald =     8745.0459961338292487
       EH =     9900.1218864056645543
     Eloc =   -20159.0309779357085063
      Enl =     -179.1417246573221291
      Exc =     -465.5307404402301472
 Exc_core =      230.1592982780948091
       KE =      498.4159388185785247
-------------------------------------
     Etot =    -1429.9529659364266081
       TS =        0.0000262977123061
-------------------------------------
        F =    -1429.9529922341389465

IonicMinimize: Iter:   1  F: -1429.952992234138947  |grad|_K:  3.972e-04  alpha:  1.000e+00  linmin: -1.000e+00  t[s]:  11217.69

#--- Lowdin population analysis ---
# oxidation-state W -0.535 -0.535 -0.535 -0.535 -0.535 -0.535 -0.535 -0.535 -0.535 -0.535 -0.535 -0.535 -0.535 -0.535 -0.535 -0.535
# magnetic-moments W -0.000 -0.000 -0.000 -0.000 -0.000 -0.000 -0.000 -0.000 -0.000 -0.000 -0.000 -0.000 -0.000 -0.000 -0.000 -0.000
# oxidation-state S +0.335 +0.335 +0.335 +0.335 +0.335 +0.335 +0.335 +0.335 +0.335 +0.335 +0.335 +0.335 +0.335 +0.335 +0.335 +0.335 +0.335 +0.335 +0.335 +0.335 +0.335 +0.335 +0.335 +0.335 +0.335 +0.335 +0.335 +0.335 +0.335 +0.335 +0.335 +0.335
# magnetic-moments S +0.000 +0.000 +0.000 +0.000 +0.000 +0.000 +0.000 +0.000 +0.000 +0.000 +0.000 +0.000 +0.000 +0.000 +0.000 +0.000 +0.000 +0.000 +0.000 +0.000 +0.000 +0.000 +0.000 +0.000 +0.000 +0.000 +0.000 +0.000 +0.000 +0.000 +0.000 +0.000

	Linear fluid (dielectric constant: 78.4, screening length: 5.74355 Bohr) occupying 0.755039 of unit cell:	Completed after 6 iterations at t[s]:  11274.42

-------- Electronic minimization -----------
	Linear fluid (dielectric constant: 78.4, screening length: 5.74355 Bohr) occupying 0.755039 of unit cell:	Completed after 0 iterations at t[s]:  11314.60
	FillingsUpdate:  mu: -0.167259139  nElectrons: 416.000000  magneticMoment: [ Abs: 0.00003  Tot: -0.00000 ]
ElecMinimize: Iter:   0  F: -1429.952950716207852  |grad|_K:  4.433e-07  alpha:  1.000e+00
	Linear fluid (dielectric constant: 78.4, screening length: 5.74355 Bohr) occupying 0.755040 of unit cell:	Completed after 9 iterations at t[s]:  11453.04
	Linear fluid (dielectric constant: 78.4, screening length: 5.74355 Bohr) occupying 0.755040 of unit cell:	Completed after 3 iterations at t[s]:  11507.45
	FillingsUpdate:  mu: -0.168313968  nElectrons: 416.000000  magneticMoment: [ Abs: 0.00003  Tot: -0.00000 ]
	SubspaceRotationAdjust: set factor to 0.315
ElecMinimize: Iter:   1  F: -1429.953007482712792  |grad|_K:  2.341e-07  alpha:  6.517e-01  linmin:  9.910e-05  t[s]:  11582.82
	Linear fluid (dielectric constant: 78.4, screening length: 5.74355 Bohr) occupying 0.755050 of unit cell:	Completed after 7 iterations at t[s]:  11638.67
	Linear fluid (dielectric constant: 78.4, screening length: 5.74355 Bohr) occupying 0.755054 of unit cell:	Completed after 2 iterations at t[s]:  11692.18
	FillingsUpdate:  mu: -0.167856280  nElectrons: 416.000000  magneticMoment: [ Abs: 0.00003  Tot: -0.00000 ]
	SubspaceRotationAdjust: set factor to 0.437
ElecMinimize: Iter:   2  F: -1429.953029540702801  |grad|_K:  1.878e-07  alpha:  8.999e-01  linmin: -2.016e-04  t[s]:  11767.45
	Linear fluid (dielectric constant: 78.4, screening length: 5.74355 Bohr) occupying 0.755068 of unit cell:	Completed after 2 iterations at t[s]:  11822.65
	Linear fluid (dielectric constant: 78.4, screening length: 5.74355 Bohr) occupying 0.755065 of unit cell:	Completed after 2 iterations at t[s]:  11875.37
	FillingsUpdate:  mu: -0.167766010  nElectrons: 416.000000  magneticMoment: [ Abs: 0.00002  Tot: -0.00000 ]
	SubspaceRotationAdjust: set factor to 0.549
ElecMinimize: Iter:   3  F: -1429.953040950380000  |grad|_K:  1.303e-07  alpha:  7.087e-01  linmin:  1.113e-07  t[s]:  11950.77
	Linear fluid (dielectric constant: 78.4, screening length: 5.74355 Bohr) occupying 0.755070 of unit cell:	Completed after 3 iterations at t[s]:  12005.99
	Linear fluid (dielectric constant: 78.4, screening length: 5.74355 Bohr) occupying 0.755069 of unit cell:	Completed after 0 iterations at t[s]:  12058.21
	FillingsUpdate:  mu: -0.167881527  nElectrons: 416.000000  magneticMoment: [ Abs: 0.00001  Tot: -0.00000 ]
	SubspaceRotationAdjust: set factor to 0.541
ElecMinimize: Iter:   4  F: -1429.953045091412605  |grad|_K:  7.082e-08  alpha:  5.465e-01  linmin:  4.532e-05  t[s]:  12132.88
	Linear fluid (dielectric constant: 78.4, screening length: 5.74355 Bohr) occupying 0.755070 of unit cell:	Completed after 1 iterations at t[s]:  12187.31
	Linear fluid (dielectric constant: 78.4, screening length: 5.74355 Bohr) occupying 0.755070 of unit cell:	Completed after 0 iterations at t[s]:  12239.68
	FillingsUpdate:  mu: -0.167805381  nElectrons: 416.000000  magneticMoment: [ Abs: 0.00001  Tot: -0.00000 ]
	SubspaceRotationAdjust: set factor to 0.442
ElecMinimize: Iter:   5  F: -1429.953045912967127  |grad|_K:  4.104e-08  alpha:  3.953e-01  linmin:  1.641e-07  t[s]:  12314.56
	Linear fluid (dielectric constant: 78.4, screening length: 5.74355 Bohr) occupying 0.755069 of unit cell:	Completed after 2 iterations at t[s]:  12368.87
	Linear fluid (dielectric constant: 78.4, screening length: 5.74355 Bohr) occupying 0.755069 of unit cell:	Completed after 0 iterations at t[s]:  12421.50
	FillingsUpdate:  mu: -0.167843522  nElectrons: 416.000000  magneticMoment: [ Abs: 0.00001  Tot: -0.00000 ]
	SubspaceRotationAdjust: set factor to 0.355
ElecMinimize: Iter:   6  F: -1429.953046191880048  |grad|_K:  1.803e-08  alpha:  3.781e-01  linmin: -5.572e-05  t[s]:  12496.06
	Linear fluid (dielectric constant: 78.4, screening length: 5.74355 Bohr) occupying 0.755069 of unit cell:	Completed after 0 iterations at t[s]:  12550.58
	Linear fluid (dielectric constant: 78.4, screening length: 5.74355 Bohr) occupying 0.755069 of unit cell:	Completed after 0 iterations at t[s]:  12602.26
	FillingsUpdate:  mu: -0.167843681  nElectrons: 416.000000  magneticMoment: [ Abs: 0.00000  Tot: -0.00000 ]
	SubspaceRotationAdjust: set factor to 0.416
ElecMinimize: Iter:   7  F: -1429.953046280905255  |grad|_K:  1.306e-08  alpha:  5.539e-01  linmin: -1.213e-08  t[s]:  12677.03
	Linear fluid (dielectric constant: 78.4, screening length: 5.74355 Bohr) occupying 0.755068 of unit cell:	Completed after 0 iterations at t[s]:  12731.25
	Linear fluid (dielectric constant: 78.4, screening length: 5.74355 Bohr) occupying 0.755068 of unit cell:	Completed after 0 iterations at t[s]:  12782.71
	FillingsUpdate:  mu: -0.167843906  nElectrons: 416.000000  magneticMoment: [ Abs: 0.00000  Tot: -0.00000 ]
	SubspaceRotationAdjust: set factor to 0.525
ElecMinimize: Iter:   8  F: -1429.953046319636542  |grad|_K:  8.267e-09  alpha:  5.125e-01  linmin: -2.126e-08  t[s]:  12857.58
	Linear fluid (dielectric constant: 78.4, screening length: 5.74355 Bohr) occupying 0.755068 of unit cell:	Completed after 0 iterations at t[s]:  12912.49
	Linear fluid (dielectric constant: 78.4, screening length: 5.74355 Bohr) occupying 0.755067 of unit cell:	Completed after 0 iterations at t[s]:  12964.32
	FillingsUpdate:  mu: -0.167844247  nElectrons: 416.000000  magneticMoment: [ Abs: 0.00000  Tot: -0.00000 ]
	SubspaceRotationAdjust: set factor to 0.663
ElecMinimize: Iter:   9  F: -1429.953046340097899  |grad|_K:  6.905e-09  alpha:  6.744e-01  linmin: -2.242e-07  t[s]:  13039.19
	Linear fluid (dielectric constant: 78.4, screening length: 5.74355 Bohr) occupying 0.755067 of unit cell:	Completed after 1 iterations at t[s]:  13094.16
	Linear fluid (dielectric constant: 78.4, screening length: 5.74355 Bohr) occupying 0.755067 of unit cell:	Completed after 0 iterations at t[s]:  13146.68
ElecMinimize: 	Step increased F by 3.934383e-08, reducing alpha to 8.322267e-03.
	Linear fluid (dielectric constant: 78.4, screening length: 5.74355 Bohr) occupying 0.755067 of unit cell:	Completed after 0 iterations at t[s]:  13266.03
ElecMinimize: 	Step increased F by 3.455398e-08, reducing alpha to 8.322267e-04.
	Linear fluid (dielectric constant: 78.4, screening length: 5.74355 Bohr) occupying 0.755067 of unit cell:	Completed after 0 iterations at t[s]:  13385.54
ElecMinimize: 	Step increased F by 3.411537e-08, reducing alpha to 8.322267e-05.
ElecMinimize: 	Step failed to reduce F after 3 attempts. Quitting step.
ElecMinimize: 	Undoing step.
	Linear fluid (dielectric constant: 78.4, screening length: 5.74355 Bohr) occupying 0.755067 of unit cell:	Completed after 0 iterations at t[s]:  13504.26
ElecMinimize: 	Step failed: resetting search direction.
	FillingsUpdate:  mu: -0.167826062  nElectrons: 416.000000  magneticMoment: [ Abs: 0.00000  Tot: -0.00000 ]
	SubspaceRotationAdjust: set factor to 0.525
ElecMinimize: Iter:  10  F: -1429.953046305975931  |grad|_K:  1.838e-08  alpha:  8.322e-05
	Linear fluid (dielectric constant: 78.4, screening length: 5.74355 Bohr) occupying 0.755067 of unit cell:	Completed after 2 iterations at t[s]:  13632.95
	Linear fluid (dielectric constant: 78.4, screening length: 5.74355 Bohr) occupying 0.755067 of unit cell:	Completed after 1 iterations at t[s]:  13685.79
	FillingsUpdate:  mu: -0.167872661  nElectrons: 416.000000  magneticMoment: [ Abs: 0.00000  Tot: -0.00000 ]
	SubspaceRotationAdjust: set factor to 0.242
ElecMinimize: Iter:  11  F: -1429.953046330105508  |grad|_K:  1.033e-08  alpha:  2.164e-01  linmin:  2.974e-04  t[s]:  13761.01
	Linear fluid (dielectric constant: 78.4, screening length: 5.74355 Bohr) occupying 0.755067 of unit cell:	Completed after 0 iterations at t[s]:  13815.80
ElecMinimize: 	Predicted alpha/alphaT>3.000000, increasing alphaT to 6.491314e-01.
	Linear fluid (dielectric constant: 78.4, screening length: 5.74355 Bohr) occupying 0.755068 of unit cell:	Completed after 0 iterations at t[s]:  13866.62
	Linear fluid (dielectric constant: 78.4, screening length: 5.74355 Bohr) occupying 0.755068 of unit cell:	Completed after 1 iterations at t[s]:  13918.49
ElecMinimize: 	Step increased F by 1.243347e-08, reducing alpha to 1.169669e-01.
	Linear fluid (dielectric constant: 78.4, screening length: 5.74355 Bohr) occupying 0.755067 of unit cell:	Completed after 0 iterations at t[s]:  14038.76
ElecMinimize: 	Step increased F by 2.261004e-09, reducing alpha to 1.169669e-02.
	Linear fluid (dielectric constant: 78.4, screening length: 5.74355 Bohr) occupying 0.755067 of unit cell:	Completed after 0 iterations at t[s]:  14158.17
ElecMinimize: 	Step increased F by 4.072717e-09, reducing alpha to 1.169669e-03.
ElecMinimize: 	Step failed to reduce F after 3 attempts. Quitting step.
ElecMinimize: 	Undoing step.
	Linear fluid (dielectric constant: 78.4, screening length: 5.74355 Bohr) occupying 0.755067 of unit cell:	Completed after 0 iterations at t[s]:  14277.88
ElecMinimize: 	Step failed: resetting search direction.
	FillingsUpdate:  mu: -0.167854318  nElectrons: 416.000000  magneticMoment: [ Abs: 0.00000  Tot: -0.00000 ]
	SubspaceRotationAdjust: set factor to 0.542
ElecMinimize: Iter:  12  F: -1429.953046325999821  |grad|_K:  3.217e-09  alpha:  1.170e-03
	Linear fluid (dielectric constant: 78.4, screening length: 5.74355 Bohr) occupying 0.755067 of unit cell:	Completed after 0 iterations at t[s]:  14406.80
ElecMinimize: 	Predicted alpha/alphaT>3.000000, increasing alphaT to 6.491314e-01.
	Linear fluid (dielectric constant: 78.4, screening length: 5.74355 Bohr) occupying 0.755067 of unit cell:	Completed after 0 iterations at t[s]:  14457.83
	Linear fluid (dielectric constant: 78.4, screening length: 5.74355 Bohr) occupying 0.755067 of unit cell:	Completed after 0 iterations at t[s]:  14509.69
	FillingsUpdate:  mu: -0.167854328  nElectrons: 416.000000  magneticMoment: [ Abs: 0.00000  Tot: -0.00000 ]
	SubspaceRotationAdjust: set factor to 0.625
ElecMinimize: Iter:  13  F: -1429.953046330144844  |grad|_K:  3.014e-09  alpha:  9.105e-01  linmin:  8.245e-07  t[s]:  14584.04
	Linear fluid (dielectric constant: 78.4, screening length: 5.74355 Bohr) occupying 0.755068 of unit cell:	Completed after 0 iterations at t[s]:  14638.86
	Linear fluid (dielectric constant: 78.4, screening length: 5.74355 Bohr) occupying 0.755068 of unit cell:	Completed after 0 iterations at t[s]:  14689.90
	FillingsUpdate:  mu: -0.167854383  nElectrons: 416.000000  magneticMoment: [ Abs: 0.00000  Tot: -0.00000 ]
	SubspaceRotationAdjust: set factor to 0.879
ElecMinimize: Iter:  14  F: -1429.953046332035001  |grad|_K:  2.101e-09  alpha:  4.788e-01  linmin: -3.537e-08  t[s]:  14764.12
ElecMinimize: Converged (|Delta F|<1.000000e-08 for 2 iters).
Setting wave functions to eigenvectors of Hamiltonian

# Ionic positions in lattice coordinates:
ion W   0.083333770193438   0.166666215384150   0.500000009000000 1
ion W   0.333333770193438   0.166666215384150   0.500000009000000 1
ion W   0.583333770193438   0.166666215384150   0.500000009000000 1
ion W   0.833333770193438   0.166666215384150   0.500000009000000 1
ion W   0.083333770193438   0.416666215384150   0.500000009000000 1
ion W   0.333333770193438   0.416666215384150   0.500000009000000 1
ion W   0.583333770193438   0.416666215384150   0.500000009000000 1
ion W   0.833333770193438   0.416666215384150   0.500000009000000 1
ion W   0.083333770193438   0.666666215384150   0.500000009000000 1
ion W   0.333333770193438   0.666666215384150   0.500000009000000 1
ion W   0.583333770193438   0.666666215384150   0.500000009000000 1
ion W   0.833333770193438   0.666666215384150   0.500000009000000 1
ion W   0.083333770193438   0.916666215384150   0.500000009000000 1
ion W   0.333333770193438   0.916666215384150   0.500000009000000 1
ion W   0.583333770193438   0.916666215384150   0.500000009000000 1
ion W   0.833333770193438   0.916666215384150   0.500000009000000 1
ion S   0.166668108840782   0.083331876557926   0.413136339362868 1
ion S   0.166668108840782   0.083331876557926   0.586863678637132 1
ion S   0.416668108840782   0.083331876557926   0.413136339362868 1
ion S   0.416668108840782   0.083331876557926   0.586863678637132 1
ion S   0.666668108840782   0.083331876557926   0.413136339362868 1
ion S   0.666668108840782   0.083331876557926   0.586863678637132 1
ion S   0.916668108840782   0.083331876557926   0.413136339362868 1
ion S   0.916668108840782   0.083331876557926   0.586863678637132 1
ion S   0.166668108840782   0.333331876557926   0.413136339362868 1
ion S   0.166668108840782   0.333331876557926   0.586863678637132 1
ion S   0.416668108840782   0.333331876557926   0.413136339362868 1
ion S   0.416668108840782   0.333331876557926   0.586863678637132 1
ion S   0.666668108840782   0.333331876557926   0.413136339362868 1
ion S   0.666668108840782   0.333331876557926   0.586863678637132 1
ion S   0.916668108840782   0.333331876557926   0.413136339362868 1
ion S   0.916668108840782   0.333331876557926   0.586863678637132 1
ion S   0.166668108840782   0.583331876557926   0.413136339362868 1
ion S   0.166668108840782   0.583331876557926   0.586863678637132 1
ion S   0.416668108840782   0.583331876557926   0.413136339362868 1
ion S   0.416668108840782   0.583331876557926   0.586863678637132 1
ion S   0.666668108840782   0.583331876557926   0.413136339362868 1
ion S   0.666668108840782   0.583331876557926   0.586863678637132 1
ion S   0.916668108840782   0.583331876557926   0.413136339362868 1
ion S   0.916668108840782   0.583331876557926   0.586863678637132 1
ion S   0.166668108840782   0.833331876557926   0.413136339362868 1
ion S   0.166668108840782   0.833331876557926   0.586863678637132 1
ion S   0.416668108840782   0.833331876557926   0.413136339362868 1
ion S   0.416668108840782   0.833331876557926   0.586863678637132 1
ion S   0.666668108840782   0.833331876557926   0.413136339362868 1
ion S   0.666668108840782   0.833331876557926   0.586863678637132 1
ion S   0.916668108840782   0.833331876557926   0.413136339362868 1
ion S   0.916668108840782   0.833331876557926   0.586863678637132 1


# Forces in Lattice coordinates:
force W   0.000193264813878  -0.000193264813878  -0.000000000000000 1
force W   0.000193264813878  -0.000193264813878  -0.000000000000000 1
force W   0.000193264813878  -0.000193264813878   0.000000000000000 1
force W   0.000193264813878  -0.000193264813878  -0.000000000000000 1
force W   0.000193264813878  -0.000193264813878  -0.000000000000000 1
force W   0.000193264813878  -0.000193264813878   0.000000000000000 1
force W   0.000193264813878  -0.000193264813878   0.000000000000000 1
force W   0.000193264813878  -0.000193264813878  -0.000000000000000 1
force W   0.000193264813878  -0.000193264813878  -0.000000000000000 1
force W   0.000193264813878  -0.000193264813878   0.000000000000000 1
force W   0.000193264813878  -0.000193264813878   0.000000000000000 1
force W   0.000193264813878  -0.000193264813878  -0.000000000000000 1
force W   0.000193264813878  -0.000193264813878  -0.000000000000000 1
force W   0.000193264813878  -0.000193264813878   0.000000000000000 1
force W   0.000193264813878  -0.000193264813878   0.000000000000000 1
force W   0.000193264813878  -0.000193264813878  -0.000000000000000 1
force S  -0.000080022399818   0.000080022399818  -0.004373088029415 1
force S  -0.000080022399818   0.000080022399818   0.004373088029646 1
force S  -0.000080022399818   0.000080022399818  -0.004373088029529 1
force S  -0.000080022399818   0.000080022399818   0.004373088029760 1
force S  -0.000080022399818   0.000080022399818  -0.004373088029528 1
force S  -0.000080022399818   0.000080022399818   0.004373088029646 1
force S  -0.000080022399818   0.000080022399818  -0.004373088029642 1
force S  -0.000080022399818   0.000080022399818   0.004373088029645 1
force S  -0.000080022399818   0.000080022399818  -0.004373088029530 1
force S  -0.000080022399818   0.000080022399818   0.004373088029419 1
force S  -0.000080022399818   0.000080022399818  -0.004373088029301 1
force S  -0.000080022399818   0.000080022399818   0.004373088029647 1
force S  -0.000080022399818   0.000080022399818  -0.004373088029415 1
force S  -0.000080022399818   0.000080022399818   0.004373088029647 1
force S  -0.000080022399818   0.000080022399818  -0.004373088029415 1
force S  -0.000080022399818   0.000080022399818   0.004373088029647 1
force S  -0.000080022399818   0.000080022399818  -0.004373088029415 1
force S  -0.000080022399818   0.000080022399818   0.004373088029645 1
force S  -0.000080022399818   0.000080022399818  -0.004373088029188 1
force S  -0.000080022399818   0.000080022399818   0.004373088029532 1
force S  -0.000080022399818   0.000080022399818  -0.004373088029416 1
force S  -0.000080022399818   0.000080022399818   0.004373088029760 1
force S  -0.000080022399818   0.000080022399818  -0.004373088029300 1
force S  -0.000080022399818   0.000080022399818   0.004373088029646 1
force S  -0.000080022399818   0.000080022399818  -0.004373088029528 1
force S  -0.000080022399818   0.000080022399818   0.004373088029646 1
force S  -0.000080022399818   0.000080022399818  -0.004373088029075 1
force S  -0.000080022399818   0.000080022399818   0.004373088029647 1
force S  -0.000080022399818   0.000080022399818  -0.004373088029301 1
force S  -0.000080022399818   0.000080022399818   0.004373088029873 1
force S  -0.000080022399818   0.000080022399818  -0.004373088029642 1
force S  -0.000080022399818   0.000080022399818   0.004373088029760 1

# Energy components:
   A_diel =        0.0073758329118530
   Eewald =     8742.7957270561892074
       EH =     9897.9202991807778744
     Eloc =   -20154.5375897795602214
      Enl =     -179.1395609776295714
      Exc =     -465.5060831918579538
 Exc_core =      230.1592926410913833
       KE =      498.3475189987086083
-------------------------------------
     Etot =    -1429.9530202393664240
       TS =        0.0000260926685064
-------------------------------------
        F =    -1429.9530463320350009

IonicMinimize: Iter:   2  F: -1429.953046332035001  |grad|_K:  6.022e-05  alpha:  1.000e+00  linmin: -9.994e-01  t[s]:  14793.21
IonicMinimize: Converged (|grad|_K<1.000000e-04).

#--- Lowdin population analysis ---
# oxidation-state W -0.534 -0.534 -0.534 -0.534 -0.534 -0.534 -0.534 -0.534 -0.534 -0.534 -0.534 -0.534 -0.534 -0.534 -0.534 -0.534
# magnetic-moments W -0.000 -0.000 -0.000 -0.000 -0.000 -0.000 -0.000 -0.000 -0.000 -0.000 -0.000 -0.000 -0.000 -0.000 -0.000 -0.000
# oxidation-state S +0.335 +0.335 +0.335 +0.335 +0.335 +0.335 +0.335 +0.335 +0.335 +0.335 +0.335 +0.335 +0.335 +0.335 +0.335 +0.335 +0.335 +0.335 +0.335 +0.335 +0.335 +0.335 +0.335 +0.335 +0.335 +0.335 +0.335 +0.335 +0.335 +0.335 +0.335 +0.335
# magnetic-moments S +0.000 +0.000 +0.000 +0.000 +0.000 +0.000 +0.000 +0.000 +0.000 +0.000 +0.000 +0.000 +0.000 +0.000 +0.000 +0.000 +0.000 +0.000 +0.000 +0.000 +0.000 +0.000 +0.000 +0.000 +0.000 +0.000 +0.000 +0.000 +0.000 +0.000 +0.000 +0.000


Dumping 'NbTe2.fillings' ... done
Dumping 'NbTe2.wfns' ... done
Dumping 'NbTe2.fluidState' ... done
Dumping 'NbTe2.ionpos' ... done
Dumping 'NbTe2.eigenvals' ... done
End date and time: Wed Jan 13 06:46:52 2021  (Duration: 0-4:06:53.49)
Done!
