
*************** JDFTx 1.5.0  ***************

Start date and time: Sun Jul 12 20:21:10 2020
Executable jdftx_gpu with command-line: -i Charged.in -o Charged.out
Running on hosts (process indices):  amax (0-1)
Divided in process groups (process indices):  0 (0)  1 (1)
gpuInit: Found compatible cuda device 0 'Tesla K80'
gpuInit: Found compatible cuda device 1 'Tesla K80'
gpuInit: Selected device 0
Resource initialization completed at t[s]:     16.61
Run totals: 2 processes, 24 threads, 2 GPUs


Input parsed successfully to the following command list (including defaults):

basis kpoint-dependent
cache-projectors no
coords-type Lattice
core-overlap-check none
coulomb-interaction Slab 001
coulomb-truncation-embed 0 0 0.5
davidson-band-ratio 1.1
dump End State
dump-name NbTe2.$VAR
elec-cutoff 20 100
elec-eigen-algo Davidson
elec-ex-corr gga-PBE
elec-smearing Gauss 0.0073499
electronic-minimize  \
	dirUpdateScheme      FletcherReeves \
	linminMethod         DirUpdateRecommended \
	nIterations          500 \
	history              15 \
	knormThreshold       0 \
	energyDiffThreshold  1e-08 \
	nEnergyDiff          2 \
	alphaTstart          1 \
	alphaTmin            1e-10 \
	updateTestStepSize   yes \
	alphaTreduceFactor   0.1 \
	alphaTincreaseFactor 3 \
	nAlphaAdjustMax      3 \
	wolfeEnergy          0.0001 \
	wolfeGradient        0.9 \
	fdTest               no
exchange-regularization WignerSeitzTruncated
fluid LinearPCM 298.000000 1.013250
fluid-anion F- 1 MeanFieldLJ \
	epsBulk 1 \
	pMol 0 \
	epsInf 1 \
	Pvap 0 \
	sigmaBulk 0 \
	Rvdw 2.24877 \
	Res 0 \
	tauNuc 343133
fluid-cation Na+ 1 MeanFieldLJ \
	epsBulk 1 \
	pMol 0 \
	epsInf 1 \
	Pvap 0 \
	sigmaBulk 0 \
	Rvdw 2.19208 \
	Res 0 \
	tauNuc 343133
fluid-ex-corr lda-TF lda-PZ
fluid-gummel-loop 10 1.000000e-05
fluid-minimize  \
	dirUpdateScheme      PolakRibiere \
	linminMethod         DirUpdateRecommended \
	nIterations          400 \
	history              15 \
	knormThreshold       1e-11 \
	energyDiffThreshold  0 \
	nEnergyDiff          2 \
	alphaTstart          1 \
	alphaTmin            1e-10 \
	updateTestStepSize   yes \
	alphaTreduceFactor   0.1 \
	alphaTincreaseFactor 3 \
	nAlphaAdjustMax      6 \
	wolfeEnergy          0.0001 \
	wolfeGradient        0.9 \
	fdTest               no
fluid-solvent H2O 55.338 ScalarEOS \
	epsBulk 78.4 \
	pMol 0.92466 \
	epsInf 1.77 \
	Pvap 1.06736e-10 \
	sigmaBulk 4.62e-05 \
	Rvdw 2.61727 \
	Res 1.42 \
	tauNuc 343133 \
	poleEl 15 7 1
forces-output-coords Positions
initial-state NbTe2.$VAR
ion La   0.162825196049936   0.325650391099875   0.568977274875682 0
ion La   0.666666724000002   0.333333531000001   0.570488503642756 0
ion La   0.162825199049940   0.837175093950060   0.568977274875682 0
ion La   0.674349853900127   0.837175093950060   0.568977274875682 0
ion La   0.335011611651801   0.167505839325905   0.428711812981829 0
ion La   0.832493936674098   0.167505839325905   0.428711812981829 0
ion La   0.333333140999997   0.666666614000000   0.430171625833698 0
ion La   0.832493878674100   0.664988145348197   0.428711812981829 0
ion P  -0.000000000000000  -0.000000000000000   0.499436393997704 0
ion P   0.500258953419311   0.000518016838625   0.501009759390740 0
ion P  -0.000518015838628   0.499740952580688   0.501009759390740 0
ion P   0.500258954419315   0.499740952580688   0.501009759390740 0
ion I   0.332057531663326   0.166028507331664   0.667077973765090 0
ion I   0.833971544668339   0.166028507331664   0.667077973765090 0
ion I   0.833971478668334   0.667942457336670   0.667077973765090 0
ion I   0.167137702403715   0.334275625807431   0.334121031712716 0
ion I   0.666666589000002   0.333333371000002   0.333580271347671 0
ion I   0.167137662403712   0.832862204596288   0.334121031712716 0
ion I   0.665724280192568   0.832862204596288   0.334121031712716 0
ion-species GBRV/$ID_pbe.uspp
ion-width Ecut
ionic-minimize  \
	dirUpdateScheme      L-BFGS \
	linminMethod         DirUpdateRecommended \
	nIterations          0 \
	history              15 \
	knormThreshold       0.0001 \
	energyDiffThreshold  1e-06 \
	nEnergyDiff          2 \
	alphaTstart          1 \
	alphaTmin            1e-10 \
	updateTestStepSize   yes \
	alphaTreduceFactor   0.1 \
	alphaTincreaseFactor 3 \
	nAlphaAdjustMax      3 \
	wolfeEnergy          0.0001 \
	wolfeGradient        0.9 \
	fdTest               no
kpoint   0.000000000000   0.000000000000   0.000000000000  1.00000000000000
kpoint-folding 4 4 1 
latt-move-scale 1 1 1
latt-scale 1 1 1 
lattice Triclinic 16.2489 16.2489 42.5261 90 90 120
lattice-minimize  \
	dirUpdateScheme      L-BFGS \
	linminMethod         DirUpdateRecommended \
	nIterations          0 \
	history              15 \
	knormThreshold       0 \
	energyDiffThreshold  1e-06 \
	nEnergyDiff          2 \
	alphaTstart          1 \
	alphaTmin            1e-10 \
	updateTestStepSize   yes \
	alphaTreduceFactor   0.1 \
	alphaTincreaseFactor 3 \
	nAlphaAdjustMax      3 \
	wolfeEnergy          0.0001 \
	wolfeGradient        0.9 \
	fdTest               no
lcao-params -1 1e-06 0.0073499
pcm-variant CANDLE
spintype no-spin
subspace-rotation-factor 1 yes
symmetries automatic
symmetry-threshold 0.0001
target-mu -0.171252 no




---------- Setting up symmetries ----------

Found 24 point-group symmetries of the bravais lattice
Found 6 space-group symmetries with basis
Applied RMS atom displacement 2.84498e-06 bohrs to make symmetries exact.

---------- Initializing the Grid ----------
R = 
[    16.2489   -8.12446          0  ]
[          0     14.072          0  ]
[          0          0    42.5261  ]
unit cell volume = 9723.77
G =
[   0.386684   0.223252         -0  ]
[          0   0.446503          0  ]
[          0         -0   0.147749  ]
Minimum fftbox size, Smin = [  76  76  192  ]
Chosen fftbox size, S = [  80  80  192  ]

---------- Initializing tighter grid for wavefunction operations ----------
R = 
[    16.2489   -8.12446          0  ]
[          0     14.072          0  ]
[          0          0    42.5261  ]
unit cell volume = 9723.77
G =
[   0.386684   0.223252         -0  ]
[          0   0.446503          0  ]
[          0         -0   0.147749  ]
Minimum fftbox size, Smin = [  68  68  172  ]
Chosen fftbox size, S = [  70  70  180  ]

---------- Exchange Correlation functional ----------
Initalized PBE GGA exchange.
Initalized PBE GGA correlation.

---------- Setting up pseudopotentials ----------
Width of ionic core gaussian charges (only for fluid interactions / plotting) set to 0.397384

Reading pseudopotential file '/home/guoxy/vasp/jdftx-1.5.0/build/pseudopotentials/GBRV/la_pbe.uspp':
  Title: La.  Created by USPP 7.3.6 on 14-9-2013
  Reference state energy: -51.063618.  11 valence electrons in orbitals:
    |500>  occupation: 2  eigenvalue: -1.451142
    |510>  occupation: 6  eigenvalue: -0.843691
    |520>  occupation: 1  eigenvalue: -0.130012
    |600>  occupation: 1.5  eigenvalue: -0.146765
    |610>  occupation: 0.5  eigenvalue: -0.059369
    |430>  occupation: 0  eigenvalue: -0.180348
  lMax: 3  lLocal: -1  QijEcut: 5
  8 projectors sampled on a log grid with 665 points:
    l: 0  eig: -1.451139  rCut: 1.7
    l: 0  eig: -0.146766  rCut: 1.7
    l: 1  eig: -0.843687  rCut: 1.9
    l: 1  eig: -0.059370  rCut: 1.9
    l: 2  eig: -0.130014  rCut: 2
    l: 2  eig: 1.000000  rCut: 2
    l: 3  eig: -0.180352  rCut: 2
    l: 3  eig: -1.000000  rCut: 2
  Partial core density with radius 1.3
  Transforming core density to a uniform radial grid of dG=0.02 with 1707 points.
  Transforming local potential to a uniform radial grid of dG=0.02 with 1707 points.
  Transforming nonlocal projectors to a uniform radial grid of dG=0.02 with 432 points.
  Transforming density augmentations to a uniform radial grid of dG=0.02 with 1707 points.
  Transforming atomic orbitals to a uniform radial grid of dG=0.02 with 432 points.
  Core radius for overlap checks: 2.00 bohrs.

Reading pseudopotential file '/home/guoxy/vasp/jdftx-1.5.0/build/pseudopotentials/GBRV/p_pbe.uspp':
  Title: P.  Created by USPP 7.3.6 on 11-6-15
  Reference state energy: -7.561951.  5 valence electrons in orbitals:
    |300>  occupation: 2  eigenvalue: -0.513368
    |310>  occupation: 3  eigenvalue: -0.202371
  lMax: 2  lLocal: 3  QijEcut: 5
  6 projectors sampled on a log grid with 631 points:
    l: 0  eig: -0.513363  rCut: 1.5
    l: 0  eig: 0.500000  rCut: 1.5
    l: 1  eig: -0.202372  rCut: 1.5
    l: 1  eig: 1.000000  rCut: 1.5
    l: 2  eig: -0.500000  rCut: 1.5
    l: 2  eig: 1.500000  rCut: 1.5
  Partial core density with radius 1.35
  Transforming core density to a uniform radial grid of dG=0.02 with 1707 points.
  Transforming local potential to a uniform radial grid of dG=0.02 with 1707 points.
  Transforming nonlocal projectors to a uniform radial grid of dG=0.02 with 432 points.
  Transforming density augmentations to a uniform radial grid of dG=0.02 with 1707 points.
  Transforming atomic orbitals to a uniform radial grid of dG=0.02 with 432 points.
  Core radius for overlap checks: 1.50 bohrs.

Reading pseudopotential file '/home/guoxy/vasp/jdftx-1.5.0/build/pseudopotentials/GBRV/i_pbe.uspp':
  Title: I.  Created by USPP 7.3.6 on 14-9-2013
  Reference state energy: -32.770235.  7 valence electrons in orbitals:
    |500>  occupation: 2  eigenvalue: -0.639712
    |510>  occupation: 5  eigenvalue: -0.260406
  lMax: 2  lLocal: 3  QijEcut: 5
  6 projectors sampled on a log grid with 725 points:
    l: 0  eig: -0.639710  rCut: 1.9
    l: 0  eig: 0.000000  rCut: 1.9
    l: 1  eig: -0.260404  rCut: 2
    l: 1  eig: 0.000000  rCut: 2
    l: 2  eig: -0.500000  rCut: 2.45
    l: 2  eig: 0.500000  rCut: 2.45
  Partial core density with radius 1.3
  Transforming core density to a uniform radial grid of dG=0.02 with 1707 points.
  Transforming local potential to a uniform radial grid of dG=0.02 with 1707 points.
  Transforming nonlocal projectors to a uniform radial grid of dG=0.02 with 432 points.
  Transforming density augmentations to a uniform radial grid of dG=0.02 with 1707 points.
  Transforming atomic orbitals to a uniform radial grid of dG=0.02 with 432 points.
  Core radius for overlap checks: 2.45 bohrs.

Initialized 3 species with 19 total atoms.

Folded 1 k-points by 4x4x1 to 16 k-points.

---------- Setting up k-points, bands, fillings ----------
Adding inversion symmetry to k-mesh for non-inversion-symmetric unit cell.
Reduced to 4 k-points under symmetry. 
Computing the number of bands and number of electrons
Reading initial fillings from file NbTe2.fillings.
nElectrons: 157.000000   nBands: 204   nStates: 4

----- Setting up reduced wavefunction bases (one per k-point) -----
average nbasis = 41542.562 , ideal nbasis = 41540.690

---------- Setting up coulomb interaction ----------
Fluid mode embedding: using embedded box, but periodic Coulomb kernel.
(Fluid response is responsible for (approximate) separation between periodic images.)
Setting up double-sized grid for truncated Coulomb potentials:
R = 
[    16.2489   -8.12446          0  ]
[          0     14.072          0  ]
[          0          0    85.0522  ]
unit cell volume = 19447.5
G =
[   0.386684   0.223252         -0  ]
[          0   0.446503          0  ]
[          0         -0  0.0738745  ]
Chosen fftbox size, S = [  80  80  384  ]
Integer grid location selected as the embedding center:
   Grid: [  0  0  96  ]
   Lattice: [  0  0  0.5  ]
   Cartesian: [  0  0  21.263  ]
Constructing Wigner-Seitz cell: 8 faces (6 quadrilaterals, 2 hexagons)
Range-separation parameter for embedded mesh potentials due to point charges: 0.593728 bohrs.

Initializing van der Waals corrections
	NOTE: vdW corrections apply only for interactions with fluid.
	La:  C6:  815.23 Eh-a0^6  R0: 3.326 a0 (WARNING: beyond Grimme's data set)
	 P:  C6:  135.99 Eh-a0^6  R0: 3.222 a0
	 I:  C6:  546.38 Eh-a0^6  R0: 3.575 a0

---------- Setting up ewald sum ----------
Optimum gaussian width for ewald sums = 6.567590 bohr.
Real space sum over 845 unit cells with max indices [  6  6  2  ]
Reciprocal space sum over 5203 terms with max indices [  5  5  21  ]

---------- Allocating electronic variables ----------
Initializing wave functions:  reading from 'NbTe2.wfns'
----- createFluidSolver() ----- (Fluid-side solver setup)
   Initializing fluid molecule 'H2O'
     Initializing site 'O'
       Electron density: proportional to exp(-r/0.36935)*erfc((r-0.51523)/0.36823) with norm 6.826
       Charge density: gaussian nuclear width 0.478731 with net site charge 0.826
       Polarizability: cuspless exponential with width 0.32 and norm 3.73
       Hard sphere radius: 2.57003 bohrs
       Positions in reference frame:
         [ +0.000000 +0.000000 +0.000000 ]
     Initializing site 'H'
       Electron density: proportional to exp(-r/0.34641)*erfc((r-0)/0.390882) with norm 0.587
       Charge density: gaussian nuclear width 0.377945 with net site charge -0.413
       Polarizability: cuspless exponential with width 0.39 and norm 3.3
       Positions in reference frame:
         [ +0.000000 -1.441945 +1.122523 ]
         [ +0.000000 +1.441945 +1.122523 ]
     Net charge: 0   dipole magnitude: 0.927204
     Initializing spherical shell mfKernel with radius 2.61727 Bohr
     deltaS corrections:
       site 'O': -7.54299
       site 'H': -6.83917
   Initializing fluid molecule 'Na+'
     Initializing site 'Na'
       Electron density: proportional to exp(-r/0.19682)*erfc((r-0.71491)/0.41314) with norm 8.1383
       Charge density: gaussian nuclear width 0.365347 with net site charge -1
       Hard sphere radius: 1.86327 bohrs
       Positions in reference frame:
         [ +0.000000 +0.000000 +0.000000 ]
     Net charge: -1   dipole magnitude: 0
     Initializing gaussian mfKernel with width: 1.55004 Bohr
     deltaS corrections:
       site 'Na': -22.3555
   Initializing fluid molecule 'F-'
     Initializing site 'F'
       Electron density: proportional to exp(-r/0.38886)*erfc((r-0)/0.438782) with norm 8
       Charge density: gaussian nuclear width 0.374796 with net site charge 1
       Hard sphere radius: 2.39995 bohrs
       Positions in reference frame:
         [ +0.000000 +0.000000 +0.000000 ]
     Net charge: 1   dipole magnitude: 0
     Initializing gaussian mfKernel with width: 1.59012 Bohr
     deltaS corrections:
       site 'F': -9.04335

Correction to mu due to finite nuclear width = -0.00801004
   Cavity determined by nc: 0.00142 and sigma: 0.707107
   Nonlocal vdW cavity from gaussian model electron density with norm = 8 and sigma = 0.993594 bohr
   Charge asymmetry in cavity with sensitivity pCavity = 36.5 e-bohr/Eh
   Electrostatic cavity expanded by eta = 1.46 bohrs
   Weighted density cavitation model constrained by Nbulk: 0.0049383 bohr^-3, Pvap: 3.14029 kPa, Rvdw: 2.61727 bohr and sigmaBulk: 4.62e-05 Eh/bohr^2 at T: 298 K.
   Weighted density dispersion model using vdW pair potentials with single solvent site with sqrtC6eff: 0.77 SI.
Reading fluid state from 'NbTe2.fluidState'


---- Citations for features of the code used in this run ----

   Software package:
      R. Sundararaman, K. Letchworth-Weaver, K.A. Schwarz, D. Gunceler, Y. Ozhabes and T.A. Arias, 'JDFTx: software for joint density-functional theory', SoftwareX 6, 278 (2017)

   gga-PBE exchange-correlation functional:
      J.P. Perdew, K. Burke and M. Ernzerhof, Phys. Rev. Lett. 77, 3865 (1996)

   Pseudopotentials:
      KF Garrity, JW Bennett, KM Rabe and D Vanderbilt, Comput. Mater. Sci. 81, 446 (2014)

   Truncated Coulomb potentials:
      R. Sundararaman and T.A. Arias, Phys. Rev. B 87, 165122 (2013)

   Van der Waals correction pair-potentials:
      S. Grimme, J. Comput. Chem. 27, 1787 (2006)

   Charge-asymmetric nonlocally-determined local-electric (CANDLE) solvation model:
      R. Sundararaman and W.A. Goddard III, J. Chem. Phys. 142, 064107 (2015)

   Total energy minimization with Auxiliary Hamiltonian:
      C. Freysoldt, S. Boeck, and J. Neugebauer, Phys. Rev. B 79, 241103(R) (2009)

   Grand-canonical (fixed-potential) DFT:
      R. Sundararaman, W. A. Goddard III and T. A. Arias, J. Chem. Phys. 146, 114104 (2017)

This list may not be complete. Please suggest additional citations or
report any other bugs at https://github.com/shankar1729/jdftx/issues

Initialization completed successfully at t[s]:     21.94

Shifting auxilliary hamiltonian by -0.044447 to set nElectrons=157.000000
	Linear fluid (dielectric constant: 78.4, screening length: 5.74355 Bohr) occupying 0.711466 of unit cell:	Completed after 1 iterations at t[s]:     23.88

-------- Electronic minimization -----------
	Linear fluid (dielectric constant: 78.4, screening length: 5.74355 Bohr) occupying 0.711466 of unit cell:	Completed after 0 iterations at t[s]:     25.97
	FillingsUpdate:  mu: -0.171251800  nElectrons: 157.000000
ElecMinimize: Iter:   0  G: -337.000900556056592  |grad|_K:  7.234e-05  alpha:  1.000e+00
	Linear fluid (dielectric constant: 78.4, screening length: 5.74355 Bohr) occupying 0.712042 of unit cell:	Completed after 25 iterations at t[s]:     49.71
	Linear fluid (dielectric constant: 78.4, screening length: 5.74355 Bohr) occupying 0.711541 of unit cell:	Completed after 24 iterations at t[s]:     57.71
ElecMinimize: 	Step increased G by 6.853470e-03, reducing alpha to 8.722277e-03.
	Linear fluid (dielectric constant: 78.4, screening length: 5.74355 Bohr) occupying 0.711458 of unit cell:	Completed after 20 iterations at t[s]:     64.86
	FillingsUpdate:  mu: -0.171251800  nElectrons: 156.930291
	SubspaceRotationAdjust: set factor to 0.5
ElecMinimize: Iter:   1  G: -337.003624200085824  |grad|_K:  5.498e-05  alpha:  8.722e-03  linmin: -9.546e-02  t[s]:     68.37
	Linear fluid (dielectric constant: 78.4, screening length: 5.74355 Bohr) occupying 0.711477 of unit cell:	Completed after 14 iterations at t[s]:     72.54
	Linear fluid (dielectric constant: 78.4, screening length: 5.74355 Bohr) occupying 0.711503 of unit cell:	Completed after 16 iterations at t[s]:     77.04
	FillingsUpdate:  mu: -0.171251800  nElectrons: 156.708815
	SubspaceRotationAdjust: set factor to 0.298
ElecMinimize: Iter:   2  G: -337.007390542496751  |grad|_K:  1.634e-05  alpha:  2.083e-02  linmin: -2.120e-04  t[s]:     80.52
	Linear fluid (dielectric constant: 78.4, screening length: 5.74355 Bohr) occupying 0.711537 of unit cell:	Completed after 10 iterations at t[s]:     84.24
ElecMinimize: 	Predicted alpha/alphaT>3.000000, increasing alphaT to 6.248254e-02.
	Linear fluid (dielectric constant: 78.4, screening length: 5.74355 Bohr) occupying 0.711605 of unit cell:	Completed after 12 iterations at t[s]:     87.89
ElecMinimize: 	Predicted alpha/alphaT>3.000000, increasing alphaT to 1.874476e-01.
	Linear fluid (dielectric constant: 78.4, screening length: 5.74355 Bohr) occupying 0.711810 of unit cell:	Completed after 14 iterations at t[s]:     91.85
	Linear fluid (dielectric constant: 78.4, screening length: 5.74355 Bohr) occupying 0.712068 of unit cell:	Completed after 14 iterations at t[s]:     96.00
	FillingsUpdate:  mu: -0.171251800  nElectrons: 156.402595
	SubspaceRotationAdjust: set factor to 0.163
ElecMinimize: Iter:   3  G: -337.010594827463137  |grad|_K:  2.791e-05  alpha:  3.474e-01  linmin: -1.446e-04  t[s]:     99.43
	Linear fluid (dielectric constant: 78.4, screening length: 5.74355 Bohr) occupying 0.714013 of unit cell:	Completed after 19 iterations at t[s]:    103.74
	Linear fluid (dielectric constant: 78.4, screening length: 5.74355 Bohr) occupying 0.713177 of unit cell:	Completed after 18 iterations at t[s]:    108.19
	FillingsUpdate:  mu: -0.171251800  nElectrons: 156.171842
	SubspaceRotationAdjust: set factor to 0.128
	SubspaceRotationAdjust: resetting CG because factor has changed by 0.127671
	Linear fluid (dielectric constant: 78.4, screening length: 5.74355 Bohr) occupying 0.713177 of unit cell:	Completed after 0 iterations at t[s]:    113.72
ElecMinimize: 	State modified externally: resetting search direction.
ElecMinimize: Iter:   4  G: -337.015933165135095  |grad|_K:  1.117e-05  alpha:  1.950e-01
	Linear fluid (dielectric constant: 78.4, screening length: 5.74355 Bohr) occupying 0.713297 of unit cell:	Completed after 14 iterations at t[s]:    120.87
	Linear fluid (dielectric constant: 78.4, screening length: 5.74355 Bohr) occupying 0.713414 of unit cell:	Completed after 14 iterations at t[s]:    125.05
	FillingsUpdate:  mu: -0.171251800  nElectrons: 156.289318
	SubspaceRotationAdjust: set factor to 0.0485
ElecMinimize: Iter:   5  G: -337.017558130126417  |grad|_K:  6.397e-06  alpha:  3.837e-01  linmin: -1.122e-05  t[s]:    128.37
	Linear fluid (dielectric constant: 78.4, screening length: 5.74355 Bohr) occupying 0.713655 of unit cell:	Completed after 14 iterations at t[s]:    132.38
	Linear fluid (dielectric constant: 78.4, screening length: 5.74355 Bohr) occupying 0.713789 of unit cell:	Completed after 13 iterations at t[s]:    136.43
	FillingsUpdate:  mu: -0.171251800  nElectrons: 156.258365
	SubspaceRotationAdjust: set factor to 0.0561
ElecMinimize: Iter:   6  G: -337.018389467110467  |grad|_K:  3.090e-06  alpha:  5.973e-01  linmin: -4.730e-05  t[s]:    139.93
	Linear fluid (dielectric constant: 78.4, screening length: 5.74355 Bohr) occupying 0.713993 of unit cell:	Completed after 11 iterations at t[s]:    143.82
	Linear fluid (dielectric constant: 78.4, screening length: 5.74355 Bohr) occupying 0.714041 of unit cell:	Completed after 3 iterations at t[s]:    147.30
	FillingsUpdate:  mu: -0.171251800  nElectrons: 156.250810
	SubspaceRotationAdjust: set factor to 0.0706
ElecMinimize: Iter:   7  G: -337.018628978703816  |grad|_K:  1.967e-06  alpha:  7.370e-01  linmin: -1.701e-05  t[s]:    150.74
	Linear fluid (dielectric constant: 78.4, screening length: 5.74355 Bohr) occupying 0.714221 of unit cell:	Completed after 10 iterations at t[s]:    154.15
	Linear fluid (dielectric constant: 78.4, screening length: 5.74355 Bohr) occupying 0.714323 of unit cell:	Completed after 9 iterations at t[s]:    157.96
	FillingsUpdate:  mu: -0.171251800  nElectrons: 156.247563
	SubspaceRotationAdjust: set factor to 0.0863
ElecMinimize: Iter:   8  G: -337.018781867545613  |grad|_K:  1.932e-06  alpha:  1.158e+00  linmin: -8.687e-05  t[s]:    161.33
	Linear fluid (dielectric constant: 78.4, screening length: 5.74355 Bohr) occupying 0.714614 of unit cell:	Completed after 12 iterations at t[s]:    165.16
	Linear fluid (dielectric constant: 78.4, screening length: 5.74355 Bohr) occupying 0.714577 of unit cell:	Completed after 3 iterations at t[s]:    168.65
	FillingsUpdate:  mu: -0.171251800  nElectrons: 156.223378
	SubspaceRotationAdjust: set factor to 0.105
ElecMinimize: Iter:   9  G: -337.018910745293965  |grad|_K:  1.847e-06  alpha:  1.009e+00  linmin:  7.682e-06  t[s]:    172.36
	Linear fluid (dielectric constant: 78.4, screening length: 5.74355 Bohr) occupying 0.714779 of unit cell:	Completed after 5 iterations at t[s]:    175.72
	Linear fluid (dielectric constant: 78.4, screening length: 5.74355 Bohr) occupying 0.714894 of unit cell:	Completed after 5 iterations at t[s]:    179.45
	FillingsUpdate:  mu: -0.171251800  nElectrons: 156.195629
	SubspaceRotationAdjust: set factor to 0.118
ElecMinimize: Iter:  10  G: -337.019097153051291  |grad|_K:  2.248e-06  alpha:  1.604e+00  linmin: -2.711e-05  t[s]:    182.83
	Linear fluid (dielectric constant: 78.4, screening length: 5.74355 Bohr) occupying 0.715296 of unit cell:	Completed after 12 iterations at t[s]:    186.49
	Linear fluid (dielectric constant: 78.4, screening length: 5.74355 Bohr) occupying 0.715075 of unit cell:	Completed after 12 iterations at t[s]:    190.64
	FillingsUpdate:  mu: -0.171251800  nElectrons: 156.182752
	SubspaceRotationAdjust: set factor to 0.128
ElecMinimize: Iter:  11  G: -337.019216889717484  |grad|_K:  1.619e-06  alpha:  6.955e-01  linmin:  1.317e-05  t[s]:    194.14
	Linear fluid (dielectric constant: 78.4, screening length: 5.74355 Bohr) occupying 0.715163 of unit cell:	Completed after 10 iterations at t[s]:    197.67
	Linear fluid (dielectric constant: 78.4, screening length: 5.74355 Bohr) occupying 0.715195 of unit cell:	Completed after 3 iterations at t[s]:    201.19
	FillingsUpdate:  mu: -0.171251800  nElectrons: 156.166776
	SubspaceRotationAdjust: set factor to 0.131
ElecMinimize: Iter:  12  G: -337.019301645531186  |grad|_K:  1.169e-06  alpha:  9.534e-01  linmin: -2.485e-05  t[s]:    204.90
	Linear fluid (dielectric constant: 78.4, screening length: 5.74355 Bohr) occupying 0.715256 of unit cell:	Completed after 12 iterations at t[s]:    208.81
	Linear fluid (dielectric constant: 78.4, screening length: 5.74355 Bohr) occupying 0.715234 of unit cell:	Completed after 8 iterations at t[s]:    212.69
	FillingsUpdate:  mu: -0.171251800  nElectrons: 156.169426
	SubspaceRotationAdjust: set factor to 0.112
ElecMinimize: Iter:  13  G: -337.019330424925499  |grad|_K:  7.506e-07  alpha:  6.111e-01  linmin:  3.840e-05  t[s]:    216.01
	Linear fluid (dielectric constant: 78.4, screening length: 5.74355 Bohr) occupying 0.715247 of unit cell:	Completed after 9 iterations at t[s]:    219.43
	Linear fluid (dielectric constant: 78.4, screening length: 5.74355 Bohr) occupying 0.715248 of unit cell:	Completed after 0 iterations at t[s]:    222.63
	FillingsUpdate:  mu: -0.171251800  nElectrons: 156.162319
	SubspaceRotationAdjust: set factor to 0.0889
ElecMinimize: Iter:  14  G: -337.019343059328719  |grad|_K:  4.818e-07  alpha:  6.618e-01  linmin: -1.968e-04  t[s]:    226.11
	Linear fluid (dielectric constant: 78.4, screening length: 5.74355 Bohr) occupying 0.715254 of unit cell:	Completed after 9 iterations at t[s]:    229.70
	Linear fluid (dielectric constant: 78.4, screening length: 5.74355 Bohr) occupying 0.715254 of unit cell:	Completed after 0 iterations at t[s]:    232.87
	FillingsUpdate:  mu: -0.171251800  nElectrons: 156.164621
	SubspaceRotationAdjust: set factor to 0.0966
ElecMinimize: Iter:  15  G: -337.019348787586296  |grad|_K:  3.025e-07  alpha:  7.116e-01  linmin: -1.111e-05  t[s]:    236.61
	Linear fluid (dielectric constant: 78.4, screening length: 5.74355 Bohr) occupying 0.715255 of unit cell:	Completed after 3 iterations at t[s]:    240.00
	Linear fluid (dielectric constant: 78.4, screening length: 5.74355 Bohr) occupying 0.715255 of unit cell:	Completed after 0 iterations at t[s]:    243.13
	FillingsUpdate:  mu: -0.171251800  nElectrons: 156.165072
	SubspaceRotationAdjust: set factor to 0.117
ElecMinimize: Iter:  16  G: -337.019350994571482  |grad|_K:  2.182e-07  alpha:  7.090e-01  linmin: -5.315e-05  t[s]:    246.46
	Linear fluid (dielectric constant: 78.4, screening length: 5.74355 Bohr) occupying 0.715254 of unit cell:	Completed after 3 iterations at t[s]:    249.80
	Linear fluid (dielectric constant: 78.4, screening length: 5.74355 Bohr) occupying 0.715254 of unit cell:	Completed after 0 iterations at t[s]:    252.67
	FillingsUpdate:  mu: -0.171251800  nElectrons: 156.163572
	SubspaceRotationAdjust: set factor to 0.154
ElecMinimize: Iter:  17  G: -337.019352265571399  |grad|_K:  1.604e-07  alpha:  7.781e-01  linmin: -4.822e-05  t[s]:    256.24
	Linear fluid (dielectric constant: 78.4, screening length: 5.74355 Bohr) occupying 0.715249 of unit cell:	Completed after 3 iterations at t[s]:    259.58
	Linear fluid (dielectric constant: 78.4, screening length: 5.74355 Bohr) occupying 0.715250 of unit cell:	Completed after 0 iterations at t[s]:    262.57
	FillingsUpdate:  mu: -0.171251800  nElectrons: 156.162588
	SubspaceRotationAdjust: set factor to 0.124
ElecMinimize: Iter:  18  G: -337.019352843125716  |grad|_K:  1.764e-07  alpha:  6.679e-01  linmin: -1.377e-04  t[s]:    266.32
	Linear fluid (dielectric constant: 78.4, screening length: 5.74355 Bohr) occupying 0.715242 of unit cell:	Completed after 4 iterations at t[s]:    269.76
	Linear fluid (dielectric constant: 78.4, screening length: 5.74355 Bohr) occupying 0.715244 of unit cell:	Completed after 2 iterations at t[s]:    273.13
	FillingsUpdate:  mu: -0.171251800  nElectrons: 156.164044
	SubspaceRotationAdjust: set factor to 0.115
ElecMinimize: Iter:  19  G: -337.019353325306440  |grad|_K:  1.411e-07  alpha:  4.499e-01  linmin:  5.056e-05  t[s]:    276.55
	Linear fluid (dielectric constant: 78.4, screening length: 5.74355 Bohr) occupying 0.715239 of unit cell:	Completed after 0 iterations at t[s]:    279.58
	Linear fluid (dielectric constant: 78.4, screening length: 5.74355 Bohr) occupying 0.715236 of unit cell:	Completed after 2 iterations at t[s]:    282.71
	FillingsUpdate:  mu: -0.171251800  nElectrons: 156.164501
	SubspaceRotationAdjust: set factor to 0.155
ElecMinimize: Iter:  20  G: -337.019353733258583  |grad|_K:  1.193e-07  alpha:  6.632e-01  linmin:  8.316e-05  t[s]:    286.13
	Linear fluid (dielectric constant: 78.4, screening length: 5.74355 Bohr) occupying 0.715229 of unit cell:	Completed after 3 iterations at t[s]:    289.37
	Linear fluid (dielectric constant: 78.4, screening length: 5.74355 Bohr) occupying 0.715229 of unit cell:	Completed after 0 iterations at t[s]:    292.17
	FillingsUpdate:  mu: -0.171251800  nElectrons: 156.163600
	SubspaceRotationAdjust: set factor to 0.16
ElecMinimize: Iter:  21  G: -337.019354020246112  |grad|_K:  9.035e-08  alpha:  6.239e-01  linmin:  3.572e-05  t[s]:    295.44
	Linear fluid (dielectric constant: 78.4, screening length: 5.74355 Bohr) occupying 0.715223 of unit cell:	Completed after 0 iterations at t[s]:    298.59
	Linear fluid (dielectric constant: 78.4, screening length: 5.74355 Bohr) occupying 0.715223 of unit cell:	Completed after 0 iterations at t[s]:    301.78
	FillingsUpdate:  mu: -0.171251800  nElectrons: 156.163525
	SubspaceRotationAdjust: set factor to 0.188
ElecMinimize: Iter:  22  G: -337.019354208123275  |grad|_K:  7.085e-08  alpha:  6.949e-01  linmin: -4.156e-08  t[s]:    305.09
	Linear fluid (dielectric constant: 78.4, screening length: 5.74355 Bohr) occupying 0.715217 of unit cell:	Completed after 0 iterations at t[s]:    308.10
	Linear fluid (dielectric constant: 78.4, screening length: 5.74355 Bohr) occupying 0.715217 of unit cell:	Completed after 0 iterations at t[s]:    311.18
	FillingsUpdate:  mu: -0.171251800  nElectrons: 156.163979
	SubspaceRotationAdjust: set factor to 0.222
ElecMinimize: Iter:  23  G: -337.019354323099378  |grad|_K:  5.861e-08  alpha:  6.742e-01  linmin: -8.421e-08  t[s]:    314.57
	Linear fluid (dielectric constant: 78.4, screening length: 5.74355 Bohr) occupying 0.715213 of unit cell:	Completed after 2 iterations at t[s]:    317.79
	Linear fluid (dielectric constant: 78.4, screening length: 5.74355 Bohr) occupying 0.715214 of unit cell:	Completed after 0 iterations at t[s]:    320.75
	FillingsUpdate:  mu: -0.171251800  nElectrons: 156.164632
	SubspaceRotationAdjust: set factor to 0.251
ElecMinimize: Iter:  24  G: -337.019354373158023  |grad|_K:  4.578e-08  alpha:  5.061e-01  linmin: -2.044e-04  t[s]:    324.12
	Linear fluid (dielectric constant: 78.4, screening length: 5.74355 Bohr) occupying 0.715212 of unit cell:	Completed after 0 iterations at t[s]:    327.36
	Linear fluid (dielectric constant: 78.4, screening length: 5.74355 Bohr) occupying 0.715211 of unit cell:	Completed after 0 iterations at t[s]:    330.61
	FillingsUpdate:  mu: -0.171251800  nElectrons: 156.164910
	SubspaceRotationAdjust: set factor to 0.33
ElecMinimize: Iter:  25  G: -337.019354422360038  |grad|_K:  4.210e-08  alpha:  5.894e-01  linmin:  7.762e-08  t[s]:    334.15
	Linear fluid (dielectric constant: 78.4, screening length: 5.74355 Bohr) occupying 0.715209 of unit cell:	Completed after 2 iterations at t[s]:    337.56
	Linear fluid (dielectric constant: 78.4, screening length: 5.74355 Bohr) occupying 0.715210 of unit cell:	Completed after 0 iterations at t[s]:    340.40
	FillingsUpdate:  mu: -0.171251800  nElectrons: 156.164906
	SubspaceRotationAdjust: set factor to 0.268
ElecMinimize: Iter:  26  G: -337.019354433729461  |grad|_K:  5.421e-08  alpha:  2.889e-01  linmin:  7.001e-05  t[s]:    343.78
	Linear fluid (dielectric constant: 78.4, screening length: 5.74355 Bohr) occupying 0.715208 of unit cell:	Completed after 0 iterations at t[s]:    346.82
	Linear fluid (dielectric constant: 78.4, screening length: 5.74355 Bohr) occupying 0.715209 of unit cell:	Completed after 0 iterations at t[s]:    349.92
	FillingsUpdate:  mu: -0.171251800  nElectrons: 156.165540
	SubspaceRotationAdjust: set factor to 0.241
ElecMinimize: Iter:  27  G: -337.019354456077110  |grad|_K:  4.995e-08  alpha:  2.524e-01  linmin: -8.762e-10  t[s]:    353.30
	Linear fluid (dielectric constant: 78.4, screening length: 5.74355 Bohr) occupying 0.715207 of unit cell:	Completed after 3 iterations at t[s]:    356.68
	Linear fluid (dielectric constant: 78.4, screening length: 5.74355 Bohr) occupying 0.715208 of unit cell:	Completed after 1 iterations at t[s]:    359.81
ElecMinimize: 	Step increased G by 1.437871e-08, reducing alpha to 5.238167e-03.
	Linear fluid (dielectric constant: 78.4, screening length: 5.74355 Bohr) occupying 0.715209 of unit cell:	Completed after 0 iterations at t[s]:    366.03
ElecMinimize: 	Step increased G by 5.550135e-09, reducing alpha to 5.238167e-04.
	Linear fluid (dielectric constant: 78.4, screening length: 5.74355 Bohr) occupying 0.715209 of unit cell:	Completed after 0 iterations at t[s]:    372.31
ElecMinimize: 	Step increased G by 4.734318e-09, reducing alpha to 5.238167e-05.
ElecMinimize: 	Step failed to reduce G after 3 attempts. Quitting step.
ElecMinimize: 	Undoing step.
	Linear fluid (dielectric constant: 78.4, screening length: 5.74355 Bohr) occupying 0.715209 of unit cell:	Completed after 0 iterations at t[s]:    378.27
ElecMinimize: 	Step failed: resetting search direction.
	FillingsUpdate:  mu: -0.171251800  nElectrons: 156.165542
	SubspaceRotationAdjust: set factor to 0.152
ElecMinimize: Iter:  28  G: -337.019354451357401  |grad|_K:  5.504e-08  alpha:  5.238e-05
	Linear fluid (dielectric constant: 78.4, screening length: 5.74355 Bohr) occupying 0.715209 of unit cell:	Completed after 2 iterations at t[s]:    384.70
	Linear fluid (dielectric constant: 78.4, screening length: 5.74355 Bohr) occupying 0.715209 of unit cell:	Completed after 0 iterations at t[s]:    387.83
	FillingsUpdate:  mu: -0.171251800  nElectrons: 156.165303
	SubspaceRotationAdjust: set factor to 0.0771
ElecMinimize: Iter:  29  G: -337.019354451537197  |grad|_K:  4.494e-08  alpha:  1.065e-01  linmin:  2.200e-03  t[s]:    391.11
	Linear fluid (dielectric constant: 78.4, screening length: 5.74355 Bohr) occupying 0.715209 of unit cell:	Completed after 0 iterations at t[s]:    393.97
	Linear fluid (dielectric constant: 78.4, screening length: 5.74355 Bohr) occupying 0.715209 of unit cell:	Completed after 0 iterations at t[s]:    397.06
	FillingsUpdate:  mu: -0.171251800  nElectrons: 156.165277
	SubspaceRotationAdjust: set factor to 0.0561
ElecMinimize: Iter:  30  G: -337.019354463969535  |grad|_K:  3.046e-08  alpha:  2.895e-01  linmin:  3.180e-06  t[s]:    400.45
	Linear fluid (dielectric constant: 78.4, screening length: 5.74355 Bohr) occupying 0.715209 of unit cell:	Completed after 0 iterations at t[s]:    403.46
ElecMinimize: 	Predicted alpha/alphaT>3.000000, increasing alphaT to 8.685546e-01.
	Linear fluid (dielectric constant: 78.4, screening length: 5.74355 Bohr) occupying 0.715209 of unit cell:	Completed after 2 iterations at t[s]:    406.90
	Linear fluid (dielectric constant: 78.4, screening length: 5.74355 Bohr) occupying 0.715209 of unit cell:	Completed after 0 iterations at t[s]:    410.23
	FillingsUpdate:  mu: -0.171251800  nElectrons: 156.165481
	SubspaceRotationAdjust: set factor to 0.0344
ElecMinimize: Iter:  31  G: -337.019354469294285  |grad|_K:  2.604e-08  alpha:  3.019e-01  linmin:  1.213e-03  t[s]:    413.68
	Linear fluid (dielectric constant: 78.4, screening length: 5.74355 Bohr) occupying 0.715209 of unit cell:	Completed after 0 iterations at t[s]:    416.38
	Linear fluid (dielectric constant: 78.4, screening length: 5.74355 Bohr) occupying 0.715209 of unit cell:	Completed after 0 iterations at t[s]:    419.43
	FillingsUpdate:  mu: -0.171251800  nElectrons: 156.165535
	SubspaceRotationAdjust: set factor to 0.0536
ElecMinimize: Iter:  32  G: -337.019354471874522  |grad|_K:  1.971e-08  alpha:  3.141e-01  linmin:  4.278e-07  t[s]:    422.92
ElecMinimize: Converged (|Delta G|<1.000000e-08 for 2 iters).
Setting wave functions to eigenvectors of Hamiltonian

# Ionic positions in lattice coordinates:
ion La   0.162825083646429   0.325650214871806   0.568977274875682 0
ion La   0.666666643263158   0.333333334105264   0.570488503642756 0
ion La   0.162825083646429   0.837174893721992   0.568977274875682 0
ion La   0.674349762496615   0.837174893721992   0.568977274875682 0
ion La   0.335011766248295   0.167505895597832   0.428711812981829 0
ion La   0.832494081770589   0.167505895597832   0.428711812981829 0
ion La   0.333333309929824   0.666666667438597   0.430171625833698 0
ion La   0.832494081770589   0.664988211120126   0.428711812981829 0
ion P  -0.000000023403509   0.000000000771930   0.499436393997704 0
ion P   0.500258982349138   0.000518012277224   0.501009759390740 0
ion P  -0.000518034908802   0.499740995019284   0.501009759390740 0
ion P   0.500258982349138   0.499740995019284   0.501009759390740 0
ion I   0.332057322259818   0.166028673603594   0.667077973765090 0
ion I   0.833971303764828   0.166028673603594   0.667077973765090 0
ion I   0.833971303764828   0.667942655108604   0.667077973765090 0
ion I   0.167137777166872   0.334275601912693   0.334121031712716 0
ion I   0.666666643263158   0.333333334105264   0.333580271347671 0
ion I   0.167137777166872   0.832862200201549   0.334121031712716 0
ion I   0.665724375455729   0.832862200201549   0.334121031712716 0


# Forces in Lattice coordinates:
force La   0.000000000000000   0.002301371944389   0.419626202157856 0
force La   0.000000000000000  -0.000000000000000   0.414693206380664 0
force La   0.002301371944392  -0.002301371944385   0.419626202157856 0
force La  -0.002301371944392   0.000000000000000   0.419626202157856 0
force La  -0.007015548921815  -0.000000000000000  -0.215070954921015 0
force La   0.007015548921815  -0.007015548921815  -0.215070954920789 0
force La   0.000000000000000   0.000000000000000  -0.278963915063168 0
force La   0.000000000000000   0.007015548921815  -0.215070954920902 0
force P   0.000000000000000   0.000000000000000  -0.077202526229004 0
force P   0.000000000000000  -0.019584801674986  -0.049168891345098 0
force P   0.019584801674986  -0.000000000000000  -0.049168891345098 0
force P  -0.019584801674986   0.019584801674986  -0.049168891345098 0
force I  -0.003667058072717  -0.000000000000000  -0.169016892274862 0
force I   0.003667058072717  -0.003667058072717  -0.169016892274862 0
force I   0.000000000000000   0.003667058072717  -0.169016892274748 0
force I   0.000000000000000   0.000336592897132  -0.000360988784890 0
force I   0.000000000000000   0.000000000000000  -0.029631935833657 0
force I   0.000336592897132  -0.000336592897132  -0.000360988784890 0
force I  -0.000336592897132  -0.000000000000000  -0.000360988785117 0

# Energy components:
   A_diel =       -0.0355572491116158
   Eewald =     2869.7969173247629442
       EH =     3147.1299679164435474
     Eloc =    -6432.5071545165537827
      Enl =       16.9584210934802257
      Exc =     -378.3794934271044212
 Exc_core =      308.3053642211500573
       KE =      104.9812404754888178
  MuShift =        0.0066840950520347
-------------------------------------
     Etot =     -363.7436100663926482
       TS =        0.0193733866788439
-------------------------------------
        F =     -363.7629834530715129
      muN =      -26.7436289811969665
-------------------------------------
        G =     -337.0193544718745216

IonicMinimize: Iter:   0  G: -337.019354471874522  |grad|_K:  0.000e+00  t[s]:    425.38
IonicMinimize: Converged (|grad|_K<1.000000e-04).

#--- Lowdin population analysis ---
# oxidation-state La +0.031 -0.267 +0.031 +0.031 -0.264 -0.264 -0.272 -0.264
# oxidation-state P +0.142 +0.102 +0.102 +0.102
# oxidation-state I +0.263 +0.263 +0.263 +0.281 +0.292 +0.281 +0.281


Dumping 'NbTe2.fillings' ... done
Dumping 'NbTe2.wfns' ... done
Dumping 'NbTe2.fluidState' ... done
Dumping 'NbTe2.eigenvals' ... done
End date and time: Sun Jul 12 20:28:17 2020  (Duration: 0-0:07:06.81)
Done!
