  COHP#  atomMU  atomNU     distance     translation      ICOHP (at) eF   for spin  1
      1     H37     O56      3.30486       0   0   0           -0.00332 
      2     H37     O74      1.89337       0   0   0           -0.01622 
      3     H37     O75      0.98170       0   0   0           -3.83967 
      4     Ag9     O74      2.37739       0   0   0           -0.21236 
      5    Ag10     O74      3.12617       0   0   0           -0.05246 
      6     H27     O74      3.10190       0   0   0           -0.00139 
      7     H28     O74      2.56770       0   0   0           -0.00364 
      8     H34     O74      1.69806       0   0   0           -0.48778 
      9     H37     O74      1.89337       0   0   0           -0.01622 
     10     O54     O74      3.22309       0   0   0           -0.01543 
     11     O56     O74      3.10354       0   0   0           -0.00457 
     12     O68     O74      2.68163       0   0   0           -0.05938 
     13     O74     O75      1.43842       0   0   0           -4.09541 
     14     Ag9     O75      3.18863       0   0   0           -0.02594 
     15     H28     O75      2.01615       0   0   0           -0.18994 
     16     H34     O75      2.67846       0   0   0            0.00299 
     17     H37     O75      0.98170       0   0   0           -3.83967 
     18     O56     O75      2.89729       0   0   0           -0.03014 
     19     O74     O75      1.43842       0   0   0           -4.09541 
  COHP#  atomMU  atomNU     distance     translation      ICOHP (at) eF   for spin  2
      1     H37     O56      3.30486       0   0   0           -0.00316 
      2     H37     O74      1.89337       0   0   0           -0.01693 
      3     H37     O75      0.98170       0   0   0           -3.84402 
      4     Ag9     O74      2.37739       0   0   0           -0.47802 
      5    Ag10     O74      3.12617       0   0   0           -0.05121 
      6     H27     O74      3.10190       0   0   0           -0.00149 
      7     H28     O74      2.56770       0   0   0           -0.00844 
      8     H34     O74      1.69806       0   0   0           -0.49518 
      9     H37     O74      1.89337       0   0   0           -0.01693 
     10     O54     O74      3.22309       0   0   0           -0.03948 
     11     O56     O74      3.10354       0   0   0           -0.02684 
     12     O68     O74      2.68163       0   0   0           -0.06551 
     13     O74     O75      1.43842       0   0   0           -4.45306 
     14     Ag9     O75      3.18863       0   0   0           -0.01564 
     15     H28     O75      2.01615       0   0   0           -0.18855 
     16     H34     O75      2.67846       0   0   0            0.00270 
     17     H37     O75      0.98170       0   0   0           -3.84402 
     18     O56     O75      2.89729       0   0   0           -0.02843 
     19     O74     O75      1.43842       0   0   0           -4.45306 
