
*************** JDFTx 1.5.0  ***************

Start date and time: Tue Jul  7 12:30:07 2020
Executable jdftx_gpu with command-line: -i Charged.in -o Charged.out
Running on hosts (process indices):  amax (0)
Divided in process groups (process indices):  0 (0)
gpuInit: Found compatible cuda device 0 'Tesla K80'
gpuInit: Selected device 0
Resource initialization completed at t[s]:      9.84
Run totals: 1 processes, 24 threads, 1 GPUs


Input parsed successfully to the following command list (including defaults):

basis kpoint-dependent
cache-projectors no
coords-type Lattice
core-overlap-check none
coulomb-interaction Slab 001
coulomb-truncation-embed 0 0 0.5
davidson-band-ratio 1.1
dump End State
dump-name NbTe2.$VAR
elec-cutoff 20 100
elec-eigen-algo Davidson
elec-ex-corr gga-PBE
elec-smearing Gauss 0.0073499
electronic-minimize  \
	dirUpdateScheme      FletcherReeves \
	linminMethod         DirUpdateRecommended \
	nIterations          100 \
	history              15 \
	knormThreshold       0 \
	energyDiffThreshold  1e-08 \
	nEnergyDiff          2 \
	alphaTstart          1 \
	alphaTmin            1e-10 \
	updateTestStepSize   yes \
	alphaTreduceFactor   0.1 \
	alphaTincreaseFactor 3 \
	nAlphaAdjustMax      3 \
	wolfeEnergy          0.0001 \
	wolfeGradient        0.9 \
	fdTest               no
electronic-scf  \
	nIterations	500 \
	energyDiffThreshold	1e-08 \
	residualThreshold	1e-07 \
	mixFraction	0.5 \
	qMetric	0.8 \
	history	10 \
	nEigSteps	2 \
	eigDiffThreshold	1e-08 \
	mixedVariable	Density \
	qKerker	0.8 \
	qKappa	-1 \
	verbose	no \
	mixFractionMag	1.5
exchange-regularization WignerSeitzTruncated
fluid LinearPCM 298.000000 1.013250
fluid-anion F- 1 MeanFieldLJ \
	epsBulk 1 \
	pMol 0 \
	epsInf 1 \
	Pvap 0 \
	sigmaBulk 0 \
	Rvdw 2.24877 \
	Res 0 \
	tauNuc 343133
fluid-cation Na+ 1 MeanFieldLJ \
	epsBulk 1 \
	pMol 0 \
	epsInf 1 \
	Pvap 0 \
	sigmaBulk 0 \
	Rvdw 2.19208 \
	Res 0 \
	tauNuc 343133
fluid-ex-corr lda-TF lda-PZ
fluid-gummel-loop 10 1.000000e-05
fluid-minimize  \
	dirUpdateScheme      PolakRibiere \
	linminMethod         DirUpdateRecommended \
	nIterations          400 \
	history              15 \
	knormThreshold       1e-11 \
	energyDiffThreshold  0 \
	nEnergyDiff          2 \
	alphaTstart          1 \
	alphaTmin            1e-10 \
	updateTestStepSize   yes \
	alphaTreduceFactor   0.1 \
	alphaTincreaseFactor 3 \
	nAlphaAdjustMax      6 \
	wolfeEnergy          0.0001 \
	wolfeGradient        0.9 \
	fdTest               no
fluid-solvent H2O 55.338 ScalarEOS \
	epsBulk 78.4 \
	pMol 0.92466 \
	epsInf 1.77 \
	Pvap 1.06736e-10 \
	sigmaBulk 4.62e-05 \
	Rvdw 2.61727 \
	Res 1.42 \
	tauNuc 343133 \
	poleEl 15 7 1
forces-output-coords Positions
initial-state NbTe2.$VAR
ion Bi   0.375000001149388   0.659277061583945   0.657210505006790 0
ion Bi   0.875000001149388   0.659277061583945   0.657210505006790 0
ion Bi   0.124999999448171   0.340717944400414   0.342789605980253 0
ion Bi   0.624999999448171   0.340717944400414   0.342789605980253 0
ion Bi   0.374999999094918   0.301072483986115   0.411847553708424 0
ion Bi   0.874999999094918   0.301072483986115   0.411847553708424 0
ion Bi   0.125000000557897   0.698931179730543   0.588152858864090 0
ion Bi   0.625000000557897   0.698931179730543   0.588152858864090 0
ion Bi   0.375000001798611   0.077976990267745   0.382961306575626 0
ion Bi   0.875000001798611   0.077976990267745   0.382961306575626 0
ion Bi   0.124999999138900   0.922024645065113   0.617040425250383 0
ion Bi   0.624999999138900   0.922024645065113   0.617040425250383 0
ion Bi   0.374999999395371   0.974419433079402   0.550905783580324 0
ion Bi   0.874999999395371   0.974419433079402   0.550905783580324 0
ion Bi   0.125000000367869   0.025579291374776   0.449095635323685 0
ion Bi   0.625000000367869   0.025579291374776   0.449095635323685 0
ion Bi   0.374999999360348   0.199961567387887   0.578021021590321 0
ion Bi   0.874999999360348   0.199961567387887   0.578021021590321 0
ion Bi   0.124999999299455   0.800037473233163   0.421977876572631 0
ion Bi   0.624999999299455   0.800037473233163   0.421977876572631 0
ion Bi   0.374999999905441   0.754275232692878   0.489961033108346 0
ion Bi   0.874999999905441   0.754275232692878   0.489961033108346 0
ion Bi   0.124999999978591   0.245729472025270   0.510033702369402 0
ion Bi   0.624999999978591   0.245729472025270   0.510033702369402 0
ion Bi   0.375000000470059   0.525786075454492   0.466774305817052 0
ion Bi   0.875000000470060   0.525786075454492   0.466774305817052 0
ion Bi   0.124999999857550   0.474209224084776   0.533224110290303 0
ion Bi   0.624999999857550   0.474209224084776   0.533224110290303 0
ion Bi   0.124999999757513   0.563712398985152   0.367035125103621 0
ion Bi   0.624999999757513   0.563712398985152   0.367035125103621 0
ion Bi   0.375000000009486   0.436281012120547   0.632965908580814 0
ion Bi   0.875000000009486   0.436281012120547   0.632965908580814 0
ion Bi   0.125000000712987   0.385979112747197   0.701118789460922 0
ion Bi   0.625000000712987   0.385979112747197   0.701118789460922 0
ion Bi   0.374999999824112   0.614016934146848   0.298882386607767 0
ion Bi   0.874999999824112   0.614016934146848   0.298882386607767 0
ion I   0.124999999921250   0.593909268057357   0.745449596238339 0
ion I   0.624999999921251   0.593909268057357   0.745449596238339 0
ion I   0.374999999928690   0.406102267537234   0.254548721402561 0
ion I   0.874999999928690   0.406102267537234   0.254548721402561 0
ion I   0.125000000168782   0.158071797795715   0.673016264063717 0
ion I   0.625000000168782   0.158071797795715   0.673016264063717 0
ion I   0.374999999854623   0.841929134243401   0.326987484504620 0
ion I   0.874999999854623   0.841929134243401   0.326987484504620 0
ion-species GBRV/$ID_pbe.uspp
ion-width Ecut
ionic-minimize  \
	dirUpdateScheme      L-BFGS \
	linminMethod         DirUpdateRecommended \
	nIterations          0 \
	history              15 \
	knormThreshold       0.0001 \
	energyDiffThreshold  1e-06 \
	nEnergyDiff          2 \
	alphaTstart          1 \
	alphaTmin            1e-10 \
	updateTestStepSize   yes \
	alphaTreduceFactor   0.1 \
	alphaTincreaseFactor 3 \
	nAlphaAdjustMax      3 \
	wolfeEnergy          0.0001 \
	wolfeGradient        0.9 \
	fdTest               no
kpoint   0.000000000000   0.000000000000   0.000000000000  1.00000000000000
kpoint-folding 4 3 1 
latt-move-scale 1 1 1
latt-scale 1 1 1 
lattice Triclinic 16.7699 25.1035 56.5964 90 90 90
lattice-minimize  \
	dirUpdateScheme      L-BFGS \
	linminMethod         DirUpdateRecommended \
	nIterations          0 \
	history              15 \
	knormThreshold       0 \
	energyDiffThreshold  1e-06 \
	nEnergyDiff          2 \
	alphaTstart          1 \
	alphaTmin            1e-10 \
	updateTestStepSize   yes \
	alphaTreduceFactor   0.1 \
	alphaTincreaseFactor 3 \
	nAlphaAdjustMax      3 \
	wolfeEnergy          0.0001 \
	wolfeGradient        0.9 \
	fdTest               no
lcao-params -1 1e-06 0.0073499
pcm-variant CANDLE
spintype no-spin
subspace-rotation-factor 1 yes
symmetries automatic
symmetry-threshold 0.0001
target-mu -0.24475 no




---------- Setting up symmetries ----------

Found 8 point-group symmetries of the bravais lattice
Found 4 space-group symmetries with basis
Applied RMS atom displacement 1.07517e-08 bohrs to make symmetries exact.

---------- Initializing the Grid ----------
R = 
[    16.7699          0          0  ]
[          0    25.1035          0  ]
[          0          0    56.5964  ]
unit cell volume = 23826.2
G =
[    0.37467          0          0  ]
[          0   0.250291          0  ]
[          0          0   0.111017  ]
Minimum fftbox size, Smin = [  76  116  256  ]
Chosen fftbox size, S = [  80  120  256  ]

---------- Initializing tighter grid for wavefunction operations ----------
R = 
[    16.7699          0          0  ]
[          0    25.1035          0  ]
[          0          0    56.5964  ]
unit cell volume = 23826.2
G =
[    0.37467          0          0  ]
[          0   0.250291          0  ]
[          0          0   0.111017  ]
Minimum fftbox size, Smin = [  68  104  228  ]
Chosen fftbox size, S = [  70  108  240  ]

---------- Exchange Correlation functional ----------
Initalized PBE GGA exchange.
Initalized PBE GGA correlation.

---------- Setting up pseudopotentials ----------
Width of ionic core gaussian charges (only for fluid interactions / plotting) set to 0.397384

Reading pseudopotential file '/home/guoxy/vasp/jdftx-1.5.0/build/pseudopotentials/GBRV/bi_pbe.uspp':
  Title: Bi.  Created by USPP 7.3.6 on 14-9-2013
  Reference state energy: -92.204004.  15 valence electrons in orbitals:
    |520>  occupation: 10  eigenvalue: -1.293263
    |600>  occupation: 2  eigenvalue: -0.812524
    |610>  occupation: 2  eigenvalue: -0.420386
  lMax: 2  lLocal: 3  QijEcut: 5
  6 projectors sampled on a log grid with 747 points:
    l: 0  eig: -0.812524  rCut: 2.5
    l: 0  eig: 0.500000  rCut: 2.5
    l: 1  eig: -0.420386  rCut: 2.5
    l: 1  eig: 1.000000  rCut: 2.5
    l: 2  eig: -1.293263  rCut: 2.3
    l: 2  eig: -0.500000  rCut: 2.3
  Partial core density with radius 1
  Transforming core density to a uniform radial grid of dG=0.02 with 1282 points.
  Transforming local potential to a uniform radial grid of dG=0.02 with 1282 points.
  Transforming nonlocal projectors to a uniform radial grid of dG=0.02 with 432 points.
  Transforming density augmentations to a uniform radial grid of dG=0.02 with 1282 points.
  Transforming atomic orbitals to a uniform radial grid of dG=0.02 with 432 points.
  Core radius for overlap checks: 2.50 bohrs.

Reading pseudopotential file '/home/guoxy/vasp/jdftx-1.5.0/build/pseudopotentials/GBRV/i_pbe.uspp':
  Title: I.  Created by USPP 7.3.6 on 14-9-2013
  Reference state energy: -32.770235.  7 valence electrons in orbitals:
    |500>  occupation: 2  eigenvalue: -0.639712
    |510>  occupation: 5  eigenvalue: -0.260406
  lMax: 2  lLocal: 3  QijEcut: 5
  6 projectors sampled on a log grid with 725 points:
    l: 0  eig: -0.639710  rCut: 1.9
    l: 0  eig: 0.000000  rCut: 1.9
    l: 1  eig: -0.260404  rCut: 2
    l: 1  eig: 0.000000  rCut: 2
    l: 2  eig: -0.500000  rCut: 2.45
    l: 2  eig: 0.500000  rCut: 2.45
  Partial core density with radius 1.3
  Transforming core density to a uniform radial grid of dG=0.02 with 1282 points.
  Transforming local potential to a uniform radial grid of dG=0.02 with 1282 points.
  Transforming nonlocal projectors to a uniform radial grid of dG=0.02 with 432 points.
  Transforming density augmentations to a uniform radial grid of dG=0.02 with 1282 points.
  Transforming atomic orbitals to a uniform radial grid of dG=0.02 with 432 points.
  Core radius for overlap checks: 2.45 bohrs.

Initialized 2 species with 44 total atoms.

Folded 1 k-points by 4x3x1 to 12 k-points.

---------- Setting up k-points, bands, fillings ----------
Adding inversion symmetry to k-mesh for non-inversion-symmetric unit cell.
Reduced to 6 k-points under symmetry. 
Computing the number of bands and number of electrons
Reading initial fillings from file NbTe2.fillings.
nElectrons: 596.000000   nBands: 356   nStates: 6

----- Setting up reduced wavefunction bases (one per k-point) -----
average nbasis = 101802.417 , ideal nbasis = 101787.256

---------- Setting up coulomb interaction ----------
Fluid mode embedding: using embedded box, but periodic Coulomb kernel.
(Fluid response is responsible for (approximate) separation between periodic images.)
Setting up double-sized grid for truncated Coulomb potentials:
R = 
[    16.7699          0          0  ]
[          0    25.1035          0  ]
[          0          0    113.193  ]
unit cell volume = 47652.4
G =
[    0.37467          0          0  ]
[          0   0.250291          0  ]
[          0          0  0.0555087  ]
Chosen fftbox size, S = [  80  120  512  ]
Integer grid location selected as the embedding center:
   Grid: [  0  0  128  ]
   Lattice: [  0  0  0.5  ]
   Cartesian: [  0  0  28.2982  ]
Constructing Wigner-Seitz cell: 6 faces (6 quadrilaterals, 0 hexagons)
Range-separation parameter for embedded mesh potentials due to point charges: 0.593177 bohrs.

Initializing van der Waals corrections
	NOTE: vdW corrections apply only for interactions with fluid.
	Bi:  C6:  893.28 Eh-a0^6  R0: 3.555 a0 (WARNING: beyond Grimme's data set)
	 I:  C6:  546.38 Eh-a0^6  R0: 3.575 a0

---------- Setting up ewald sum ----------
Optimum gaussian width for ewald sums = 7.697731 bohr.
Real space sum over 585 unit cells with max indices [  6  4  2  ]
Reciprocal space sum over 7007 terms with max indices [  5  6  24  ]

---------- Allocating electronic variables ----------
Initializing wave functions:  reading from 'NbTe2.wfns'
----- createFluidSolver() ----- (Fluid-side solver setup)
   Initializing fluid molecule 'H2O'
     Initializing site 'O'
       Electron density: proportional to exp(-r/0.36935)*erfc((r-0.51523)/0.36823) with norm 6.826
       Charge density: gaussian nuclear width 0.478731 with net site charge 0.826
       Polarizability: cuspless exponential with width 0.32 and norm 3.73
       Hard sphere radius: 2.57003 bohrs
       Positions in reference frame:
         [ +0.000000 +0.000000 +0.000000 ]
     Initializing site 'H'
       Electron density: proportional to exp(-r/0.34641)*erfc((r-0)/0.390882) with norm 0.587
       Charge density: gaussian nuclear width 0.377945 with net site charge -0.413
       Polarizability: cuspless exponential with width 0.39 and norm 3.3
       Positions in reference frame:
         [ +0.000000 -1.441945 +1.122523 ]
         [ +0.000000 +1.441945 +1.122523 ]
     Net charge: 0   dipole magnitude: 0.927204
     Initializing spherical shell mfKernel with radius 2.61727 Bohr
     deltaS corrections:
       site 'O': -7.54299
       site 'H': -6.83917
   Initializing fluid molecule 'Na+'
     Initializing site 'Na'
       Electron density: proportional to exp(-r/0.19682)*erfc((r-0.71491)/0.41314) with norm 8.1383
       Charge density: gaussian nuclear width 0.365347 with net site charge -1
       Hard sphere radius: 1.86327 bohrs
       Positions in reference frame:
         [ +0.000000 +0.000000 +0.000000 ]
     Net charge: -1   dipole magnitude: 0
     Initializing gaussian mfKernel with width: 1.55004 Bohr
     deltaS corrections:
       site 'Na': -22.3555
   Initializing fluid molecule 'F-'
     Initializing site 'F'
       Electron density: proportional to exp(-r/0.38886)*erfc((r-0)/0.438782) with norm 8
       Charge density: gaussian nuclear width 0.374796 with net site charge 1
       Hard sphere radius: 2.39995 bohrs
       Positions in reference frame:
         [ +0.000000 +0.000000 +0.000000 ]
     Net charge: 1   dipole magnitude: 0
     Initializing gaussian mfKernel with width: 1.59012 Bohr
     deltaS corrections:
       site 'F': -9.04335

Correction to mu due to finite nuclear width = -0.0124097
   Cavity determined by nc: 0.00142 and sigma: 0.707107
   Nonlocal vdW cavity from gaussian model electron density with norm = 8 and sigma = 0.993594 bohr
   Charge asymmetry in cavity with sensitivity pCavity = 36.5 e-bohr/Eh
   Electrostatic cavity expanded by eta = 1.46 bohrs
   Weighted density cavitation model constrained by Nbulk: 0.0049383 bohr^-3, Pvap: 3.14029 kPa, Rvdw: 2.61727 bohr and sigmaBulk: 4.62e-05 Eh/bohr^2 at T: 298 K.
   Weighted density dispersion model using vdW pair potentials with single solvent site with sqrtC6eff: 0.77 SI.
Reading fluid state from 'NbTe2.fluidState'


---- Citations for features of the code used in this run ----

   Software package:
      R. Sundararaman, K. Letchworth-Weaver, K.A. Schwarz, D. Gunceler, Y. Ozhabes and T.A. Arias, 'JDFTx: software for joint density-functional theory', SoftwareX 6, 278 (2017)

   gga-PBE exchange-correlation functional:
      J.P. Perdew, K. Burke and M. Ernzerhof, Phys. Rev. Lett. 77, 3865 (1996)

   Pseudopotentials:
      KF Garrity, JW Bennett, KM Rabe and D Vanderbilt, Comput. Mater. Sci. 81, 446 (2014)

   Truncated Coulomb potentials:
      R. Sundararaman and T.A. Arias, Phys. Rev. B 87, 165122 (2013)

   Van der Waals correction pair-potentials:
      S. Grimme, J. Comput. Chem. 27, 1787 (2006)

   Charge-asymmetric nonlocally-determined local-electric (CANDLE) solvation model:
      R. Sundararaman and W.A. Goddard III, J. Chem. Phys. 142, 064107 (2015)

   Grand-canonical (fixed-potential) DFT:
      R. Sundararaman, W. A. Goddard III and T. A. Arias, J. Chem. Phys. 146, 114104 (2017)

This list may not be complete. Please suggest additional citations or
report any other bugs at https://github.com/shankar1729/jdftx/issues

Initialization completed successfully at t[s]:     49.62

Shifting auxilliary hamiltonian by -0.073519 to set nElectrons=596.000000
	Linear fluid (dielectric constant: 78.4, screening length: 5.74355 Bohr) occupying 0.706215 of unit cell:	Completed after 0 iterations at t[s]:     62.66

-------- Electronic minimization -----------
Will mix electronic density at each iteration.
	FillingsUpdate:  mu: -0.244750400  nElectrons: 596.000000
	Linear fluid (dielectric constant: 78.4, screening length: 5.74355 Bohr) occupying 0.706215 of unit cell:	Completed after 0 iterations at t[s]:     76.85
	FillingsUpdate:  mu: -0.244750400  nElectrons: 517.781601
	Linear fluid (dielectric constant: 78.4, screening length: 5.74355 Bohr) occupying 0.717383 of unit cell:	Completed after 88 iterations at t[s]:    194.81
SCF: Cycle:  0   G: -2426.927723489764048   dG: +1.077e+02   |Residual|: 9.887e-01   |deigs|: 5.360e-07  t[s]:    196.62
	Linear fluid (dielectric constant: 78.4, screening length: 5.74355 Bohr) occupying 0.687829 of unit cell:	Completed after 28 iterations at t[s]:    200.31
	FillingsUpdate:  mu: -0.244750400  nElectrons: 676.660629
	Linear fluid (dielectric constant: 78.4, screening length: 5.74355 Bohr) occupying 0.754476 of unit cell:	Completed after 32 iterations at t[s]:    347.26
SCF: Cycle:  1   G: -2364.179610883205896   dG: +6.275e+01   |Residual|: 1.184e+00   |deigs|: 2.108e-01  t[s]:    349.08
	Linear fluid (dielectric constant: 78.4, screening length: 5.74355 Bohr) occupying 0.687844 of unit cell:	Completed after 29 iterations at t[s]:    352.90
	FillingsUpdate:  mu: -0.244750400  nElectrons: 596.665896
	Linear fluid (dielectric constant: 78.4, screening length: 5.74355 Bohr) occupying 0.713535 of unit cell:	Completed after 26 iterations at t[s]:    501.29
SCF: Cycle:  2   G: -2534.299018209369478   dG: -1.701e+02   |Residual|: 2.660e-01   |deigs|: 1.343e-01  t[s]:    503.22
	Linear fluid (dielectric constant: 78.4, screening length: 5.74355 Bohr) occupying 0.686484 of unit cell:	Completed after 21 iterations at t[s]:    506.14
	FillingsUpdate:  mu: -0.244750400  nElectrons: 595.391477
	Linear fluid (dielectric constant: 78.4, screening length: 5.74355 Bohr) occupying 0.711104 of unit cell:	Completed after 26 iterations at t[s]:    652.91
SCF: Cycle:  3   G: -2534.570255921443277   dG: -2.712e-01   |Residual|: 1.516e-01   |deigs|: 5.553e-03  t[s]:    654.84
	Linear fluid (dielectric constant: 78.4, screening length: 5.74355 Bohr) occupying 0.684482 of unit cell:	Completed after 18 iterations at t[s]:    657.53
	FillingsUpdate:  mu: -0.244750400  nElectrons: 589.995918
	Linear fluid (dielectric constant: 78.4, screening length: 5.74355 Bohr) occupying 0.710835 of unit cell:	Completed after 26 iterations at t[s]:    805.03
SCF: Cycle:  4   G: -2534.379067351631420   dG: +1.912e-01   |Residual|: 5.918e-02   |deigs|: 9.810e-03  t[s]:    806.85
	Linear fluid (dielectric constant: 78.4, screening length: 5.74355 Bohr) occupying 0.682363 of unit cell:	Completed after 21 iterations at t[s]:    809.76
	FillingsUpdate:  mu: -0.244750400  nElectrons: 588.710738
	Linear fluid (dielectric constant: 78.4, screening length: 5.74355 Bohr) occupying 0.710976 of unit cell:	Completed after 26 iterations at t[s]:    958.30
SCF: Cycle:  5   G: -2534.068355532666374   dG: +3.107e-01   |Residual|: 7.361e-02   |deigs|: 1.738e-03  t[s]:    960.24
	Linear fluid (dielectric constant: 78.4, screening length: 5.74355 Bohr) occupying 0.679287 of unit cell:	Completed after 19 iterations at t[s]:    963.12
	FillingsUpdate:  mu: -0.244750400  nElectrons: 588.266539
	Linear fluid (dielectric constant: 78.4, screening length: 5.74355 Bohr) occupying 0.711320 of unit cell:	Completed after 26 iterations at t[s]:   1109.25
SCF: Cycle:  6   G: -2533.949655932977294   dG: +1.187e-01   |Residual|: 7.576e-02   |deigs|: 6.353e-04  t[s]:   1111.17
	Linear fluid (dielectric constant: 78.4, screening length: 5.74355 Bohr) occupying 0.677132 of unit cell:	Completed after 19 iterations at t[s]:   1113.93
	FillingsUpdate:  mu: -0.244750400  nElectrons: 588.184246
	Linear fluid (dielectric constant: 78.4, screening length: 5.74355 Bohr) occupying 0.711726 of unit cell:	Completed after 26 iterations at t[s]:   1259.52
SCF: Cycle:  7   G: -2533.983903295005803   dG: -3.425e-02   |Residual|: 7.716e-02   |deigs|: 2.422e-04  t[s]:   1261.33
	Linear fluid (dielectric constant: 78.4, screening length: 5.74355 Bohr) occupying 0.675333 of unit cell:	Completed after 19 iterations at t[s]:   1264.12
	FillingsUpdate:  mu: -0.244750400  nElectrons: 588.977301
	Linear fluid (dielectric constant: 78.4, screening length: 5.74355 Bohr) occupying 0.712416 of unit cell:	Completed after 26 iterations at t[s]:   1411.05
SCF: Cycle:  8   G: -2534.243612853262675   dG: -2.597e-01   |Residual|: 5.842e-02   |deigs|: 1.022e-03  t[s]:   1412.91
	Linear fluid (dielectric constant: 78.4, screening length: 5.74355 Bohr) occupying 0.676478 of unit cell:	Completed after 21 iterations at t[s]:   1415.97
	FillingsUpdate:  mu: -0.244750400  nElectrons: 589.507794
	Linear fluid (dielectric constant: 78.4, screening length: 5.74355 Bohr) occupying 0.712841 of unit cell:	Completed after 26 iterations at t[s]:   1561.64
SCF: Cycle:  9   G: -2534.411933739708729   dG: -1.683e-01   |Residual|: 4.784e-02   |deigs|: 8.498e-04  t[s]:   1563.55
	Linear fluid (dielectric constant: 78.4, screening length: 5.74355 Bohr) occupying 0.686060 of unit cell:	Completed after 22 iterations at t[s]:   1566.77
	FillingsUpdate:  mu: -0.244750400  nElectrons: 590.081127
	Linear fluid (dielectric constant: 78.4, screening length: 5.74355 Bohr) occupying 0.713785 of unit cell:	Completed after 25 iterations at t[s]:   1713.28
SCF: Cycle: 10   G: -2534.581806300397602   dG: -1.699e-01   |Residual|: 3.703e-02   |deigs|: 1.222e-03  t[s]:   1715.16
	Linear fluid (dielectric constant: 78.4, screening length: 5.74355 Bohr) occupying 0.701548 of unit cell:	Completed after 24 iterations at t[s]:   1718.54
	FillingsUpdate:  mu: -0.244750400  nElectrons: 592.271104
	Linear fluid (dielectric constant: 78.4, screening length: 5.74355 Bohr) occupying 0.714388 of unit cell:	Completed after 19 iterations at t[s]:   1863.88
SCF: Cycle: 11   G: -2534.741569165684268   dG: -1.598e-01   |Residual|: 1.032e-02   |deigs|: 3.622e-03  t[s]:   1865.86
	Linear fluid (dielectric constant: 78.4, screening length: 5.74355 Bohr) occupying 0.702451 of unit cell:	Completed after 18 iterations at t[s]:   1868.56
	FillingsUpdate:  mu: -0.244750400  nElectrons: 594.130096
	Linear fluid (dielectric constant: 78.4, screening length: 5.74355 Bohr) occupying 0.713760 of unit cell:	Completed after 23 iterations at t[s]:   2016.22
SCF: Cycle: 12   G: -2534.616366428145739   dG: +1.252e-01   |Residual|: 2.465e-02   |deigs|: 3.310e-03  t[s]:   2018.17
	Linear fluid (dielectric constant: 78.4, screening length: 5.74355 Bohr) occupying 0.700338 of unit cell:	Completed after 22 iterations at t[s]:   2021.32
	FillingsUpdate:  mu: -0.244750400  nElectrons: 594.658763
	Linear fluid (dielectric constant: 78.4, screening length: 5.74355 Bohr) occupying 0.713794 of unit cell:	Completed after 26 iterations at t[s]:   2168.23
SCF: Cycle: 13   G: -2534.532722752206155   dG: +8.364e-02   |Residual|: 3.243e-02   |deigs|: 1.229e-03  t[s]:   2170.25
	Linear fluid (dielectric constant: 78.4, screening length: 5.74355 Bohr) occupying 0.707971 of unit cell:	Completed after 23 iterations at t[s]:   2173.59
	FillingsUpdate:  mu: -0.244750400  nElectrons: 593.451211
	Linear fluid (dielectric constant: 78.4, screening length: 5.74355 Bohr) occupying 0.713759 of unit cell:	Completed after 23 iterations at t[s]:   2320.92
SCF: Cycle: 14   G: -2534.694511972938017   dG: -1.618e-01   |Residual|: 1.570e-02   |deigs|: 2.731e-03  t[s]:   2322.80
	Linear fluid (dielectric constant: 78.4, screening length: 5.74355 Bohr) occupying 0.711163 of unit cell:	Completed after 23 iterations at t[s]:   2326.08
	FillingsUpdate:  mu: -0.244750400  nElectrons: 591.982983
	Linear fluid (dielectric constant: 78.4, screening length: 5.74355 Bohr) occupying 0.713799 of unit cell:	Completed after 19 iterations at t[s]:   2471.15
SCF: Cycle: 15   G: -2534.741642111623605   dG: -4.713e-02   |Residual|: 7.085e-03   |deigs|: 2.697e-03  t[s]:   2473.00
	Linear fluid (dielectric constant: 78.4, screening length: 5.74355 Bohr) occupying 0.712806 of unit cell:	Completed after 19 iterations at t[s]:   2475.95
	FillingsUpdate:  mu: -0.244750400  nElectrons: 591.045207
	Linear fluid (dielectric constant: 78.4, screening length: 5.74355 Bohr) occupying 0.713900 of unit cell:	Completed after 21 iterations at t[s]:   2623.28
SCF: Cycle: 16   G: -2534.701689245844591   dG: +3.995e-02   |Residual|: 1.644e-02   |deigs|: 1.400e-03  t[s]:   2625.19
	Linear fluid (dielectric constant: 78.4, screening length: 5.74355 Bohr) occupying 0.713223 of unit cell:	Completed after 23 iterations at t[s]:   2628.39
	FillingsUpdate:  mu: -0.244750400  nElectrons: 591.353664
	Linear fluid (dielectric constant: 78.4, screening length: 5.74355 Bohr) occupying 0.713958 of unit cell:	Completed after 21 iterations at t[s]:   2774.07
SCF: Cycle: 17   G: -2534.723216120014513   dG: -2.153e-02   |Residual|: 1.162e-02   |deigs|: 5.271e-04  t[s]:   2776.02
	Linear fluid (dielectric constant: 78.4, screening length: 5.74355 Bohr) occupying 0.714104 of unit cell:	Completed after 21 iterations at t[s]:   2779.11
	FillingsUpdate:  mu: -0.244750400  nElectrons: 592.556973
	Linear fluid (dielectric constant: 78.4, screening length: 5.74355 Bohr) occupying 0.714125 of unit cell:	Completed after 19 iterations at t[s]:   2923.61
SCF: Cycle: 18   G: -2534.736015255396524   dG: -1.280e-02   |Residual|: 7.364e-03   |deigs|: 2.131e-03  t[s]:   2925.43
	Linear fluid (dielectric constant: 78.4, screening length: 5.74355 Bohr) occupying 0.714285 of unit cell:	Completed after 19 iterations at t[s]:   2928.24
	FillingsUpdate:  mu: -0.244750400  nElectrons: 592.113473
	Linear fluid (dielectric constant: 78.4, screening length: 5.74355 Bohr) occupying 0.714143 of unit cell:	Completed after 15 iterations at t[s]:   3075.68
SCF: Cycle: 19   G: -2534.744179626825371   dG: -8.164e-03   |Residual|: 2.308e-03   |deigs|: 7.921e-04  t[s]:   3077.69
	Linear fluid (dielectric constant: 78.4, screening length: 5.74355 Bohr) occupying 0.714065 of unit cell:	Completed after 16 iterations at t[s]:   3080.26
	FillingsUpdate:  mu: -0.244750400  nElectrons: 592.131440
	Linear fluid (dielectric constant: 78.4, screening length: 5.74355 Bohr) occupying 0.714131 of unit cell:	Completed after 16 iterations at t[s]:   3225.49
SCF: Cycle: 20   G: -2534.744187768991196   dG: -8.142e-06   |Residual|: 1.725e-03   |deigs|: 4.851e-05  t[s]:   3227.38
	Linear fluid (dielectric constant: 78.4, screening length: 5.74355 Bohr) occupying 0.713896 of unit cell:	Completed after 16 iterations at t[s]:   3229.91
	FillingsUpdate:  mu: -0.244750400  nElectrons: 592.133412
	Linear fluid (dielectric constant: 78.4, screening length: 5.74355 Bohr) occupying 0.714101 of unit cell:	Completed after 16 iterations at t[s]:   3356.71
SCF: Cycle: 21   G: -2534.744218760501099   dG: -3.099e-05   |Residual|: 1.170e-03   |deigs|: 3.563e-05  t[s]:   3358.36
	Linear fluid (dielectric constant: 78.4, screening length: 5.74355 Bohr) occupying 0.713896 of unit cell:	Completed after 16 iterations at t[s]:   3360.82
	FillingsUpdate:  mu: -0.244750400  nElectrons: 592.099622
	Linear fluid (dielectric constant: 78.4, screening length: 5.74355 Bohr) occupying 0.714078 of unit cell:	Completed after 7 iterations at t[s]:   3457.53
SCF: Cycle: 22   G: -2534.744272728538817   dG: -5.397e-05   |Residual|: 9.371e-04   |deigs|: 7.110e-05  t[s]:   3459.44
	Linear fluid (dielectric constant: 78.4, screening length: 5.74355 Bohr) occupying 0.713972 of unit cell:	Completed after 7 iterations at t[s]:   3460.98
	FillingsUpdate:  mu: -0.244750400  nElectrons: 592.104160
	Linear fluid (dielectric constant: 78.4, screening length: 5.74355 Bohr) occupying 0.714074 of unit cell:	Completed after 6 iterations at t[s]:   3559.49
SCF: Cycle: 23   G: -2534.744276625838211   dG: -3.897e-06   |Residual|: 6.698e-04   |deigs|: 1.438e-05  t[s]:   3561.37
	Linear fluid (dielectric constant: 78.4, screening length: 5.74355 Bohr) occupying 0.714053 of unit cell:	Completed after 5 iterations at t[s]:   3562.71
	FillingsUpdate:  mu: -0.244750400  nElectrons: 592.085681
	Linear fluid (dielectric constant: 78.4, screening length: 5.74355 Bohr) occupying 0.714077 of unit cell:	Completed after 12 iterations at t[s]:   3688.28
SCF: Cycle: 24   G: -2534.744268850471599   dG: +7.775e-06   |Residual|: 5.327e-04   |deigs|: 3.579e-05  t[s]:   3690.02
	Linear fluid (dielectric constant: 78.4, screening length: 5.74355 Bohr) occupying 0.714109 of unit cell:	Completed after 13 iterations at t[s]:   3692.18
	FillingsUpdate:  mu: -0.244750400  nElectrons: 592.092263
	Linear fluid (dielectric constant: 78.4, screening length: 5.74355 Bohr) occupying 0.714086 of unit cell:	Completed after 10 iterations at t[s]:   3790.41
SCF: Cycle: 25   G: -2534.744277093785968   dG: -8.243e-06   |Residual|: 3.898e-04   |deigs|: 2.942e-05  t[s]:   3792.14
	Linear fluid (dielectric constant: 78.4, screening length: 5.74355 Bohr) occupying 0.714123 of unit cell:	Completed after 10 iterations at t[s]:   3794.01
	FillingsUpdate:  mu: -0.244750400  nElectrons: 592.143138
	Linear fluid (dielectric constant: 78.4, screening length: 5.74355 Bohr) occupying 0.714090 of unit cell:	Completed after 14 iterations at t[s]:   3893.21
SCF: Cycle: 26   G: -2534.744176657882690   dG: +1.004e-04   |Residual|: 7.284e-04   |deigs|: 1.011e-04  t[s]:   3895.09
	Linear fluid (dielectric constant: 78.4, screening length: 5.74355 Bohr) occupying 0.714130 of unit cell:	Completed after 14 iterations at t[s]:   3897.40
	FillingsUpdate:  mu: -0.244750400  nElectrons: 592.100224
	Linear fluid (dielectric constant: 78.4, screening length: 5.74355 Bohr) occupying 0.714088 of unit cell:	Completed after 9 iterations at t[s]:   3996.34
SCF: Cycle: 27   G: -2534.744278022433718   dG: -1.014e-04   |Residual|: 3.675e-04   |deigs|: 8.349e-05  t[s]:   3998.26
	Linear fluid (dielectric constant: 78.4, screening length: 5.74355 Bohr) occupying 0.714126 of unit cell:	Completed after 10 iterations at t[s]:   4000.14
	FillingsUpdate:  mu: -0.244750400  nElectrons: 592.099354
	Linear fluid (dielectric constant: 78.4, screening length: 5.74355 Bohr) occupying 0.714090 of unit cell:	Completed after 8 iterations at t[s]:   4097.04
SCF: Cycle: 28   G: -2534.744278987005600   dG: -9.646e-07   |Residual|: 3.117e-04   |deigs|: 2.046e-05  t[s]:   4098.84
	Linear fluid (dielectric constant: 78.4, screening length: 5.74355 Bohr) occupying 0.714121 of unit cell:	Completed after 9 iterations at t[s]:   4100.57
	FillingsUpdate:  mu: -0.244750400  nElectrons: 592.129722
	Linear fluid (dielectric constant: 78.4, screening length: 5.74355 Bohr) occupying 0.714092 of unit cell:	Completed after 14 iterations at t[s]:   4198.39
SCF: Cycle: 29   G: -2534.744233148391231   dG: +4.584e-05   |Residual|: 5.836e-04   |deigs|: 5.676e-05  t[s]:   4200.14
	Linear fluid (dielectric constant: 78.4, screening length: 5.74355 Bohr) occupying 0.714097 of unit cell:	Completed after 14 iterations at t[s]:   4202.39
	FillingsUpdate:  mu: -0.244750400  nElectrons: 592.193494
	Linear fluid (dielectric constant: 78.4, screening length: 5.74355 Bohr) occupying 0.714092 of unit cell:	Completed after 16 iterations at t[s]:   4302.77
SCF: Cycle: 30   G: -2534.743905532433928   dG: +3.276e-04   |Residual|: 1.345e-03   |deigs|: 1.107e-04  t[s]:   4304.48
	Linear fluid (dielectric constant: 78.4, screening length: 5.74355 Bohr) occupying 0.714096 of unit cell:	Completed after 16 iterations at t[s]:   4306.98
	FillingsUpdate:  mu: -0.244750400  nElectrons: 592.205728
	Linear fluid (dielectric constant: 78.4, screening length: 5.74355 Bohr) occupying 0.714092 of unit cell:	Completed after 17 iterations at t[s]:   4401.66
SCF: Cycle: 31   G: -2534.743813444438729   dG: +9.209e-05   |Residual|: 1.521e-03   |deigs|: 2.224e-05  t[s]:   4403.45
	Linear fluid (dielectric constant: 78.4, screening length: 5.74355 Bohr) occupying 0.714108 of unit cell:	Completed after 15 iterations at t[s]:   4405.83
	FillingsUpdate:  mu: -0.244750400  nElectrons: 592.181957
	Linear fluid (dielectric constant: 78.4, screening length: 5.74355 Bohr) occupying 0.714092 of unit cell:	Completed after 16 iterations at t[s]:   4503.74
SCF: Cycle: 32   G: -2534.743985344386147   dG: -1.719e-04   |Residual|: 1.245e-03   |deigs|: 4.215e-05  t[s]:   4505.53
	Linear fluid (dielectric constant: 78.4, screening length: 5.74355 Bohr) occupying 0.714107 of unit cell:	Completed after 16 iterations at t[s]:   4508.10
	FillingsUpdate:  mu: -0.244750400  nElectrons: 592.181058
	Linear fluid (dielectric constant: 78.4, screening length: 5.74355 Bohr) occupying 0.714092 of unit cell:	Completed after 16 iterations at t[s]:   4600.64
SCF: Cycle: 33   G: -2534.743994113672215   dG: -8.769e-06   |Residual|: 1.229e-03   |deigs|: 3.704e-06  t[s]:   4602.51
	Linear fluid (dielectric constant: 78.4, screening length: 5.74355 Bohr) occupying 0.714099 of unit cell:	Completed after 16 iterations at t[s]:   4605.00
	FillingsUpdate:  mu: -0.244750400  nElectrons: 592.167926
	Linear fluid (dielectric constant: 78.4, screening length: 5.74355 Bohr) occupying 0.714091 of unit cell:	Completed after 16 iterations at t[s]:   4700.24
SCF: Cycle: 34   G: -2534.744072126560241   dG: -7.801e-05   |Residual|: 1.053e-03   |deigs|: 2.432e-05  t[s]:   4702.21
	Linear fluid (dielectric constant: 78.4, screening length: 5.74355 Bohr) occupying 0.714099 of unit cell:	Completed after 16 iterations at t[s]:   4704.69
	FillingsUpdate:  mu: -0.244750400  nElectrons: 592.153544
	Linear fluid (dielectric constant: 78.4, screening length: 5.74355 Bohr) occupying 0.714090 of unit cell:	Completed after 15 iterations at t[s]:   4801.63
SCF: Cycle: 35   G: -2534.744144178447186   dG: -7.205e-05   |Residual|: 8.757e-04   |deigs|: 2.522e-05  t[s]:   4803.49
	Linear fluid (dielectric constant: 78.4, screening length: 5.74355 Bohr) occupying 0.714108 of unit cell:	Completed after 15 iterations at t[s]:   4805.94
	FillingsUpdate:  mu: -0.244750400  nElectrons: 592.153896
	Linear fluid (dielectric constant: 78.4, screening length: 5.74355 Bohr) occupying 0.714090 of unit cell:	Completed after 15 iterations at t[s]:   4901.27
SCF: Cycle: 36   G: -2534.744134848577687   dG: +9.330e-06   |Residual|: 8.896e-04   |deigs|: 4.907e-06  t[s]:   4903.24
	Linear fluid (dielectric constant: 78.4, screening length: 5.74355 Bohr) occupying 0.714110 of unit cell:	Completed after 16 iterations at t[s]:   4905.70
	FillingsUpdate:  mu: -0.244750400  nElectrons: 592.164453
	Linear fluid (dielectric constant: 78.4, screening length: 5.74355 Bohr) occupying 0.714092 of unit cell:	Completed after 15 iterations at t[s]:   5002.69
SCF: Cycle: 37   G: -2534.744084164023207   dG: +5.068e-05   |Residual|: 1.087e-03   |deigs|: 2.425e-05  t[s]:   5004.50
	Linear fluid (dielectric constant: 78.4, screening length: 5.74355 Bohr) occupying 0.714113 of unit cell:	Completed after 16 iterations at t[s]:   5006.96
	FillingsUpdate:  mu: -0.244750400  nElectrons: 592.166411
	Linear fluid (dielectric constant: 78.4, screening length: 5.74355 Bohr) occupying 0.714092 of unit cell:	Completed after 16 iterations at t[s]:   5097.05
SCF: Cycle: 38   G: -2534.744065994621451   dG: +1.817e-05   |Residual|: 1.126e-03   |deigs|: 5.961e-06  t[s]:   5098.88
	Linear fluid (dielectric constant: 78.4, screening length: 5.74355 Bohr) occupying 0.714121 of unit cell:	Completed after 16 iterations at t[s]:   5101.30
	FillingsUpdate:  mu: -0.244750400  nElectrons: 592.147136
	Linear fluid (dielectric constant: 78.4, screening length: 5.74355 Bohr) occupying 0.714091 of unit cell:	Completed after 15 iterations at t[s]:   5190.77
SCF: Cycle: 39   G: -2534.744153781506611   dG: -8.779e-05   |Residual|: 9.164e-04   |deigs|: 3.443e-05  t[s]:   5192.50
	Linear fluid (dielectric constant: 78.4, screening length: 5.74355 Bohr) occupying 0.714129 of unit cell:	Completed after 15 iterations at t[s]:   5194.90
	FillingsUpdate:  mu: -0.244750400  nElectrons: 592.100174
	Linear fluid (dielectric constant: 78.4, screening length: 5.74355 Bohr) occupying 0.714087 of unit cell:	Completed after 12 iterations at t[s]:   5292.44
SCF: Cycle: 40   G: -2534.744204500653723   dG: -5.072e-05   |Residual|: 1.393e-03   |deigs|: 1.031e-04  t[s]:   5294.51
	Linear fluid (dielectric constant: 78.4, screening length: 5.74355 Bohr) occupying 0.714107 of unit cell:	Completed after 12 iterations at t[s]:   5296.67
	FillingsUpdate:  mu: -0.244750400  nElectrons: 592.041676
	Linear fluid (dielectric constant: 78.4, screening length: 5.74355 Bohr) occupying 0.714083 of unit cell:	Completed after 16 iterations at t[s]:   5395.33
SCF: Cycle: 41   G: -2534.744032413504101   dG: +1.721e-04   |Residual|: 2.074e-03   |deigs|: 1.132e-04  t[s]:   5397.09
	Linear fluid (dielectric constant: 78.4, screening length: 5.74355 Bohr) occupying 0.714115 of unit cell:	Completed after 16 iterations at t[s]:   5399.53
	FillingsUpdate:  mu: -0.244750400  nElectrons: 592.100695
	Linear fluid (dielectric constant: 78.4, screening length: 5.74355 Bohr) occupying 0.714087 of unit cell:	Completed after 11 iterations at t[s]:   5488.30
SCF: Cycle: 42   G: -2534.744181347507492   dG: -1.489e-04   |Residual|: 1.644e-03   |deigs|: 1.066e-04  t[s]:   5490.22
	Linear fluid (dielectric constant: 78.4, screening length: 5.74355 Bohr) occupying 0.714105 of unit cell:	Completed after 11 iterations at t[s]:   5492.24
	FillingsUpdate:  mu: -0.244750400  nElectrons: 592.101312
	Linear fluid (dielectric constant: 78.4, screening length: 5.74355 Bohr) occupying 0.714088 of unit cell:	Completed after 4 iterations at t[s]:   5617.68
SCF: Cycle: 43   G: -2534.744281623849020   dG: -1.003e-04   |Residual|: 3.150e-04   |deigs|: 1.307e-04  t[s]:   5619.68
	Linear fluid (dielectric constant: 78.4, screening length: 5.74355 Bohr) occupying 0.714083 of unit cell:	Completed after 5 iterations at t[s]:   5620.98
	FillingsUpdate:  mu: -0.244750400  nElectrons: 592.137194
	Linear fluid (dielectric constant: 78.4, screening length: 5.74355 Bohr) occupying 0.714087 of unit cell:	Completed after 14 iterations at t[s]:   5709.69
SCF: Cycle: 44   G: -2534.744228318334081   dG: +5.331e-05   |Residual|: 6.134e-04   |deigs|: 6.690e-05  t[s]:   5711.58
	Linear fluid (dielectric constant: 78.4, screening length: 5.74355 Bohr) occupying 0.714067 of unit cell:	Completed after 14 iterations at t[s]:   5713.79
	FillingsUpdate:  mu: -0.244750400  nElectrons: 592.205141
	Linear fluid (dielectric constant: 78.4, screening length: 5.74355 Bohr) occupying 0.714089 of unit cell:	Completed after 16 iterations at t[s]:   5803.01
SCF: Cycle: 45   G: -2534.743802157559003   dG: +4.262e-04   |Residual|: 1.440e-03   |deigs|: 1.250e-04  t[s]:   5804.80
	Linear fluid (dielectric constant: 78.4, screening length: 5.74355 Bohr) occupying 0.714063 of unit cell:	Completed after 17 iterations at t[s]:   5807.37
	FillingsUpdate:  mu: -0.244750400  nElectrons: 592.206727
	Linear fluid (dielectric constant: 78.4, screening length: 5.74355 Bohr) occupying 0.714088 of unit cell:	Completed after 15 iterations at t[s]:   5897.25
SCF: Cycle: 46   G: -2534.743808168852411   dG: -6.011e-06   |Residual|: 1.454e-03   |deigs|: 7.573e-06  t[s]:   5899.13
	Linear fluid (dielectric constant: 78.4, screening length: 5.74355 Bohr) occupying 0.714075 of unit cell:	Completed after 17 iterations at t[s]:   5901.75
	FillingsUpdate:  mu: -0.244750400  nElectrons: 592.217696
	Linear fluid (dielectric constant: 78.4, screening length: 5.74355 Bohr) occupying 0.714090 of unit cell:	Completed after 16 iterations at t[s]:   5991.13
SCF: Cycle: 47   G: -2534.743708010576938   dG: +1.002e-04   |Residual|: 1.641e-03   |deigs|: 2.168e-05  t[s]:   5993.08
	Linear fluid (dielectric constant: 78.4, screening length: 5.74355 Bohr) occupying 0.714078 of unit cell:	Completed after 16 iterations at t[s]:   5995.54
	FillingsUpdate:  mu: -0.244750400  nElectrons: 592.215423
	Linear fluid (dielectric constant: 78.4, screening length: 5.74355 Bohr) occupying 0.714090 of unit cell:	Completed after 16 iterations at t[s]:   6084.68
SCF: Cycle: 48   G: -2534.743725610517231   dG: -1.760e-05   |Residual|: 1.620e-03   |deigs|: 4.366e-06  t[s]:   6086.50
	Linear fluid (dielectric constant: 78.4, screening length: 5.74355 Bohr) occupying 0.714095 of unit cell:	Completed after 16 iterations at t[s]:   6088.93
	FillingsUpdate:  mu: -0.244750400  nElectrons: 592.209233
	Linear fluid (dielectric constant: 78.4, screening length: 5.74355 Bohr) occupying 0.714092 of unit cell:	Completed after 17 iterations at t[s]:   6179.01
SCF: Cycle: 49   G: -2534.743766772820436   dG: -4.116e-05   |Residual|: 1.560e-03   |deigs|: 1.025e-05  t[s]:   6180.94
	Linear fluid (dielectric constant: 78.4, screening length: 5.74355 Bohr) occupying 0.714087 of unit cell:	Completed after 15 iterations at t[s]:   6183.34
	FillingsUpdate:  mu: -0.244750400  nElectrons: 592.205256
	Linear fluid (dielectric constant: 78.4, screening length: 5.74355 Bohr) occupying 0.714091 of unit cell:	Completed after 17 iterations at t[s]:   6272.63
SCF: Cycle: 50   G: -2534.743805374991098   dG: -3.860e-05   |Residual|: 1.474e-03   |deigs|: 1.246e-05  t[s]:   6274.60
	Linear fluid (dielectric constant: 78.4, screening length: 5.74355 Bohr) occupying 0.714087 of unit cell:	Completed after 16 iterations at t[s]:   6277.09
	FillingsUpdate:  mu: -0.244750400  nElectrons: 592.202397
	Linear fluid (dielectric constant: 78.4, screening length: 5.74355 Bohr) occupying 0.714091 of unit cell:	Completed after 16 iterations at t[s]:   6366.43
SCF: Cycle: 51   G: -2534.743830834710025   dG: -2.546e-05   |Residual|: 1.442e-03   |deigs|: 5.808e-06  t[s]:   6368.36
	Linear fluid (dielectric constant: 78.4, screening length: 5.74355 Bohr) occupying 0.714105 of unit cell:	Completed after 16 iterations at t[s]:   6370.90
	FillingsUpdate:  mu: -0.244750400  nElectrons: 592.188470
	Linear fluid (dielectric constant: 78.4, screening length: 5.74355 Bohr) occupying 0.714092 of unit cell:	Completed after 16 iterations at t[s]:   6460.68
SCF: Cycle: 52   G: -2534.743944298511906   dG: -1.135e-04   |Residual|: 1.296e-03   |deigs|: 2.504e-05  t[s]:   6462.54
	Linear fluid (dielectric constant: 78.4, screening length: 5.74355 Bohr) occupying 0.714118 of unit cell:	Completed after 17 iterations at t[s]:   6465.18
	FillingsUpdate:  mu: -0.244750400  nElectrons: 592.201660
	Linear fluid (dielectric constant: 78.4, screening length: 5.74355 Bohr) occupying 0.714094 of unit cell:	Completed after 15 iterations at t[s]:   6554.36
SCF: Cycle: 53   G: -2534.743828199774271   dG: +1.161e-04   |Residual|: 1.492e-03   |deigs|: 2.574e-05  t[s]:   6556.11
	Linear fluid (dielectric constant: 78.4, screening length: 5.74355 Bohr) occupying 0.714101 of unit cell:	Completed after 16 iterations at t[s]:   6558.64
	FillingsUpdate:  mu: -0.244750400  nElectrons: 592.197779
	Linear fluid (dielectric constant: 78.4, screening length: 5.74355 Bohr) occupying 0.714092 of unit cell:	Completed after 16 iterations at t[s]:   6647.73
SCF: Cycle: 54   G: -2534.743869431799794   dG: -4.123e-05   |Residual|: 1.406e-03   |deigs|: 9.646e-06  t[s]:   6649.61
	Linear fluid (dielectric constant: 78.4, screening length: 5.74355 Bohr) occupying 0.714001 of unit cell:	Completed after 17 iterations at t[s]:   6652.14
	FillingsUpdate:  mu: -0.244750400  nElectrons: 592.102467
	Linear fluid (dielectric constant: 78.4, screening length: 5.74355 Bohr) occupying 0.714073 of unit cell:	Completed after 4 iterations at t[s]:   6749.68
SCF: Cycle: 55   G: -2534.744280243908634   dG: -4.108e-04   |Residual|: 3.445e-04   |deigs|: 1.880e-04  t[s]:   6751.56
	Linear fluid (dielectric constant: 78.4, screening length: 5.74355 Bohr) occupying 0.714063 of unit cell:	Completed after 4 iterations at t[s]:   6752.73
	FillingsUpdate:  mu: -0.244750400  nElectrons: 592.133350
	Linear fluid (dielectric constant: 78.4, screening length: 5.74355 Bohr) occupying 0.714082 of unit cell:	Completed after 14 iterations at t[s]:   6842.04
SCF: Cycle: 56   G: -2534.744209900074111   dG: +7.034e-05   |Residual|: 5.678e-04   |deigs|: 8.186e-05  t[s]:   6843.86
	Linear fluid (dielectric constant: 78.4, screening length: 5.74355 Bohr) occupying 0.714047 of unit cell:	Completed after 14 iterations at t[s]:   6846.13
	FillingsUpdate:  mu: -0.244750400  nElectrons: 592.081384
	Linear fluid (dielectric constant: 78.4, screening length: 5.74355 Bohr) occupying 0.714077 of unit cell:	Completed after 10 iterations at t[s]:   6934.98
SCF: Cycle: 57   G: -2534.744270762730594   dG: -6.086e-05   |Residual|: 3.956e-04   |deigs|: 9.875e-05  t[s]:   6936.81
	Linear fluid (dielectric constant: 78.4, screening length: 5.74355 Bohr) occupying 0.714026 of unit cell:	Completed after 10 iterations at t[s]:   6938.60
	FillingsUpdate:  mu: -0.244750400  nElectrons: 592.118765
	Linear fluid (dielectric constant: 78.4, screening length: 5.74355 Bohr) occupying 0.714079 of unit cell:	Completed after 12 iterations at t[s]:   7027.30
SCF: Cycle: 58   G: -2534.744271637607653   dG: -8.749e-07   |Residual|: 3.223e-04   |deigs|: 6.383e-05  t[s]:   7029.19
	Linear fluid (dielectric constant: 78.4, screening length: 5.74355 Bohr) occupying 0.714042 of unit cell:	Completed after 12 iterations at t[s]:   7031.25
	FillingsUpdate:  mu: -0.244750400  nElectrons: 592.089247
	Linear fluid (dielectric constant: 78.4, screening length: 5.74355 Bohr) occupying 0.714078 of unit cell:	Completed after 8 iterations at t[s]:   7129.48
SCF: Cycle: 59   G: -2534.744277873513511   dG: -6.236e-06   |Residual|: 4.348e-04   |deigs|: 5.168e-05  t[s]:   7131.58
	Linear fluid (dielectric constant: 78.4, screening length: 5.74355 Bohr) occupying 0.714041 of unit cell:	Completed after 8 iterations at t[s]:   7133.30
	FillingsUpdate:  mu: -0.244750400  nElectrons: 592.148730
	Linear fluid (dielectric constant: 78.4, screening length: 5.74355 Bohr) occupying 0.714081 of unit cell:	Completed after 14 iterations at t[s]:   7244.30
SCF: Cycle: 60   G: -2534.744164725399060   dG: +1.131e-04   |Residual|: 6.709e-04   |deigs|: 1.037e-04  t[s]:   7246.14
	Linear fluid (dielectric constant: 78.4, screening length: 5.74355 Bohr) occupying 0.714037 of unit cell:	Completed after 14 iterations at t[s]:   7248.39
	FillingsUpdate:  mu: -0.244750400  nElectrons: 592.095474
	Linear fluid (dielectric constant: 78.4, screening length: 5.74355 Bohr) occupying 0.714078 of unit cell:	Completed after 5 iterations at t[s]:   7336.68
SCF: Cycle: 61   G: -2534.744280368888667   dG: -1.156e-04   |Residual|: 3.171e-04   |deigs|: 9.542e-05  t[s]:   7338.75
	Linear fluid (dielectric constant: 78.4, screening length: 5.74355 Bohr) occupying 0.714023 of unit cell:	Completed after 3 iterations at t[s]:   7339.86
	FillingsUpdate:  mu: -0.244750400  nElectrons: 592.090715
	Linear fluid (dielectric constant: 78.4, screening length: 5.74355 Bohr) occupying 0.714079 of unit cell:	Completed after 12 iterations at t[s]:   7448.48
SCF: Cycle: 62   G: -2534.744272490971525   dG: +7.878e-06   |Residual|: 2.661e-04   |deigs|: 3.332e-05  t[s]:   7450.37
	Linear fluid (dielectric constant: 78.4, screening length: 5.74355 Bohr) occupying 0.714034 of unit cell:	Completed after 11 iterations at t[s]:   7452.36
	FillingsUpdate:  mu: -0.244750400  nElectrons: 592.114135
	Linear fluid (dielectric constant: 78.4, screening length: 5.74355 Bohr) occupying 0.714079 of unit cell:	Completed after 10 iterations at t[s]:   7540.00
SCF: Cycle: 63   G: -2534.744275825918976   dG: -3.335e-06   |Residual|: 1.898e-04   |deigs|: 5.053e-05  t[s]:   7541.75
	Linear fluid (dielectric constant: 78.4, screening length: 5.74355 Bohr) occupying 0.714045 of unit cell:	Completed after 10 iterations at t[s]:   7543.55
	FillingsUpdate:  mu: -0.244750400  nElectrons: 592.084705
	Linear fluid (dielectric constant: 78.4, screening length: 5.74355 Bohr) occupying 0.714077 of unit cell:	Completed after 10 iterations at t[s]:   7632.00
SCF: Cycle: 64   G: -2534.744275937534894   dG: -1.116e-07   |Residual|: 4.410e-04   |deigs|: 4.824e-05  t[s]:   7633.92
	Linear fluid (dielectric constant: 78.4, screening length: 5.74355 Bohr) occupying 0.714044 of unit cell:	Completed after 10 iterations at t[s]:   7635.76
	FillingsUpdate:  mu: -0.244750400  nElectrons: 592.121927
	Linear fluid (dielectric constant: 78.4, screening length: 5.74355 Bohr) occupying 0.714078 of unit cell:	Completed after 13 iterations at t[s]:   7781.63
SCF: Cycle: 65   G: -2534.744241742111171   dG: +3.420e-05   |Residual|: 5.212e-04   |deigs|: 6.971e-05  t[s]:   7783.69
	Linear fluid (dielectric constant: 78.4, screening length: 5.74355 Bohr) occupying 0.714044 of unit cell:	Completed after 14 iterations at t[s]:   7786.04
	FillingsUpdate:  mu: -0.244750400  nElectrons: 592.087563
	Linear fluid (dielectric constant: 78.4, screening length: 5.74355 Bohr) occupying 0.714078 of unit cell:	Completed after 10 iterations at t[s]:   7874.58
SCF: Cycle: 66   G: -2534.744277164338200   dG: -3.542e-05   |Residual|: 3.412e-04   |deigs|: 6.784e-05  t[s]:   7876.48
	Linear fluid (dielectric constant: 78.4, screening length: 5.74355 Bohr) occupying 0.714046 of unit cell:	Completed after 10 iterations at t[s]:   7878.36
	FillingsUpdate:  mu: -0.244750400  nElectrons: 592.112252
	Linear fluid (dielectric constant: 78.4, screening length: 5.74355 Bohr) occupying 0.714079 of unit cell:	Completed after 12 iterations at t[s]:   7968.23
SCF: Cycle: 67   G: -2534.744267849835978   dG: +9.315e-06   |Residual|: 3.862e-04   |deigs|: 4.778e-05  t[s]:   7970.15
	Linear fluid (dielectric constant: 78.4, screening length: 5.74355 Bohr) occupying 0.714045 of unit cell:	Completed after 12 iterations at t[s]:   7972.23
	FillingsUpdate:  mu: -0.244750400  nElectrons: 592.086137
	Linear fluid (dielectric constant: 78.4, screening length: 5.74355 Bohr) occupying 0.714078 of unit cell:	Completed after 10 iterations at t[s]:   8110.60
SCF: Cycle: 68   G: -2534.744275940965963   dG: -8.091e-06   |Residual|: 3.810e-04   |deigs|: 4.702e-05  t[s]:   8112.46
	Linear fluid (dielectric constant: 78.4, screening length: 5.74355 Bohr) occupying 0.714044 of unit cell:	Completed after 11 iterations at t[s]:   8114.47
	FillingsUpdate:  mu: -0.244750400  nElectrons: 592.117542
	Linear fluid (dielectric constant: 78.4, screening length: 5.74355 Bohr) occupying 0.714079 of unit cell:	Completed after 12 iterations at t[s]:   8202.56
SCF: Cycle: 69   G: -2534.744258921995424   dG: +1.702e-05   |Residual|: 4.102e-04   |deigs|: 5.649e-05  t[s]:   8204.45
	Linear fluid (dielectric constant: 78.4, screening length: 5.74355 Bohr) occupying 0.714045 of unit cell:	Completed after 12 iterations at t[s]:   8206.48
	FillingsUpdate:  mu: -0.244750400  nElectrons: 592.080640
	Linear fluid (dielectric constant: 78.4, screening length: 5.74355 Bohr) occupying 0.714077 of unit cell:	Completed after 10 iterations at t[s]:   8295.00
SCF: Cycle: 70   G: -2534.744271786051286   dG: -1.286e-05   |Residual|: 4.402e-04   |deigs|: 6.897e-05  t[s]:   8296.88
	Linear fluid (dielectric constant: 78.4, screening length: 5.74355 Bohr) occupying 0.714042 of unit cell:	Completed after 10 iterations at t[s]:   8298.75
	FillingsUpdate:  mu: -0.244750400  nElectrons: 592.093868
	Linear fluid (dielectric constant: 78.4, screening length: 5.74355 Bohr) occupying 0.714078 of unit cell:	Completed after 8 iterations at t[s]:   8389.07
SCF: Cycle: 71   G: -2534.744279321346312   dG: -7.535e-06   |Residual|: 3.253e-04   |deigs|: 2.262e-05  t[s]:   8390.93
	Linear fluid (dielectric constant: 78.4, screening length: 5.74355 Bohr) occupying 0.714043 of unit cell:	Completed after 8 iterations at t[s]:   8392.61
	FillingsUpdate:  mu: -0.244750400  nElectrons: 592.118305
	Linear fluid (dielectric constant: 78.4, screening length: 5.74355 Bohr) occupying 0.714079 of unit cell:	Completed after 12 iterations at t[s]:   8481.50
SCF: Cycle: 72   G: -2534.744254388152967   dG: +2.493e-05   |Residual|: 4.493e-04   |deigs|: 4.794e-05  t[s]:   8483.37
	Linear fluid (dielectric constant: 78.4, screening length: 5.74355 Bohr) occupying 0.714045 of unit cell:	Completed after 12 iterations at t[s]:   8485.42
	FillingsUpdate:  mu: -0.244750400  nElectrons: 592.073850
	Linear fluid (dielectric constant: 78.4, screening length: 5.74355 Bohr) occupying 0.714077 of unit cell:	Completed after 11 iterations at t[s]:   8574.89
SCF: Cycle: 73   G: -2534.744262420310406   dG: -8.032e-06   |Residual|: 5.588e-04   |deigs|: 7.904e-05  t[s]:   8576.79
	Linear fluid (dielectric constant: 78.4, screening length: 5.74355 Bohr) occupying 0.714051 of unit cell:	Completed after 12 iterations at t[s]:   8578.77
	FillingsUpdate:  mu: -0.244750400  nElectrons: 592.067587
	Linear fluid (dielectric constant: 78.4, screening length: 5.74355 Bohr) occupying 0.714078 of unit cell:	Completed after 14 iterations at t[s]:   8677.39
SCF: Cycle: 74   G: -2534.744241098378097   dG: +2.132e-05   |Residual|: 5.863e-04   |deigs|: 2.130e-05  t[s]:   8679.65
	Linear fluid (dielectric constant: 78.4, screening length: 5.74355 Bohr) occupying 0.714056 of unit cell:	Completed after 13 iterations at t[s]:   8681.84
	FillingsUpdate:  mu: -0.244750400  nElectrons: 592.068051
	Linear fluid (dielectric constant: 78.4, screening length: 5.74355 Bohr) occupying 0.714079 of unit cell:	Completed after 14 iterations at t[s]:   8772.88
SCF: Cycle: 75   G: -2534.744242109970855   dG: -1.012e-06   |Residual|: 5.761e-04   |deigs|: 5.551e-06  t[s]:   8774.97
	Linear fluid (dielectric constant: 78.4, screening length: 5.74355 Bohr) occupying 0.714068 of unit cell:	Completed after 14 iterations at t[s]:   8777.41
	FillingsUpdate:  mu: -0.244750400  nElectrons: 592.055555
	Linear fluid (dielectric constant: 78.4, screening length: 5.74355 Bohr) occupying 0.714079 of unit cell:	Completed after 14 iterations at t[s]:   8888.56
SCF: Cycle: 76   G: -2534.744209222807058   dG: +3.289e-05   |Residual|: 7.200e-04   |deigs|: 2.134e-05  t[s]:   8890.49
	Linear fluid (dielectric constant: 78.4, screening length: 5.74355 Bohr) occupying 0.714067 of unit cell:	Completed after 15 iterations at t[s]:   8893.15
	FillingsUpdate:  mu: -0.244750400  nElectrons: 592.057828
	Linear fluid (dielectric constant: 78.4, screening length: 5.74355 Bohr) occupying 0.714080 of unit cell:	Completed after 14 iterations at t[s]:   8981.39
SCF: Cycle: 77   G: -2534.744218687537341   dG: -9.465e-06   |Residual|: 6.831e-04   |deigs|: 6.131e-06  t[s]:   8983.48
	Linear fluid (dielectric constant: 78.4, screening length: 5.74355 Bohr) occupying 0.714069 of unit cell:	Completed after 14 iterations at t[s]:   8985.99
	FillingsUpdate:  mu: -0.244750400  nElectrons: 592.067886
	Linear fluid (dielectric constant: 78.4, screening length: 5.74355 Bohr) occupying 0.714081 of unit cell:	Completed after 14 iterations at t[s]:   9076.61
SCF: Cycle: 78   G: -2534.744241152970062   dG: -2.247e-05   |Residual|: 5.045e-04   |deigs|: 1.871e-05  t[s]:   9078.62
	Linear fluid (dielectric constant: 78.4, screening length: 5.74355 Bohr) occupying 0.714068 of unit cell:	Completed after 14 iterations at t[s]:   9081.11
	FillingsUpdate:  mu: -0.244750400  nElectrons: 592.074507
	Linear fluid (dielectric constant: 78.4, screening length: 5.74355 Bohr) occupying 0.714081 of unit cell:	Completed after 12 iterations at t[s]:   9172.42
SCF: Cycle: 79   G: -2534.744258001656817   dG: -1.685e-05   |Residual|: 4.237e-04   |deigs|: 1.297e-05  t[s]:   9174.47
	Linear fluid (dielectric constant: 78.4, screening length: 5.74355 Bohr) occupying 0.714056 of unit cell:	Completed after 12 iterations at t[s]:   9176.76
	FillingsUpdate:  mu: -0.244750400  nElectrons: 592.094388
	Linear fluid (dielectric constant: 78.4, screening length: 5.74355 Bohr) occupying 0.714081 of unit cell:	Completed after 10 iterations at t[s]:   9266.39
SCF: Cycle: 80   G: -2534.744278612326070   dG: -2.061e-05   |Residual|: 1.380e-04   |deigs|: 3.284e-05  t[s]:   9268.42
	Linear fluid (dielectric constant: 78.4, screening length: 5.74355 Bohr) occupying 0.714055 of unit cell:	Completed after 8 iterations at t[s]:   9270.28
	FillingsUpdate:  mu: -0.244750400  nElectrons: 592.102957
	Linear fluid (dielectric constant: 78.4, screening length: 5.74355 Bohr) occupying 0.714081 of unit cell:	Completed after 3 iterations at t[s]:   9373.36
SCF: Cycle: 81   G: -2534.744281537520692   dG: -2.925e-06   |Residual|: 1.024e-04   |deigs|: 1.780e-05  t[s]:   9375.31
	Linear fluid (dielectric constant: 78.4, screening length: 5.74355 Bohr) occupying 0.714059 of unit cell:	Completed after 2 iterations at t[s]:   9376.27
	FillingsUpdate:  mu: -0.244750400  nElectrons: 592.078088
	Linear fluid (dielectric constant: 78.4, screening length: 5.74355 Bohr) occupying 0.714080 of unit cell:	Completed after 12 iterations at t[s]:   9465.41
SCF: Cycle: 82   G: -2534.744258107951282   dG: +2.343e-05   |Residual|: 3.615e-04   |deigs|: 4.613e-05  t[s]:   9467.18
	Linear fluid (dielectric constant: 78.4, screening length: 5.74355 Bohr) occupying 0.714063 of unit cell:	Completed after 12 iterations at t[s]:   9469.28
	FillingsUpdate:  mu: -0.244750400  nElectrons: 592.085554
	Linear fluid (dielectric constant: 78.4, screening length: 5.74355 Bohr) occupying 0.714081 of unit cell:	Completed after 12 iterations at t[s]:   9569.03
SCF: Cycle: 83   G: -2534.744271618767016   dG: -1.351e-05   |Residual|: 2.508e-04   |deigs|: 1.616e-05  t[s]:   9571.02
	Linear fluid (dielectric constant: 78.4, screening length: 5.74355 Bohr) occupying 0.714059 of unit cell:	Completed after 11 iterations at t[s]:   9573.01
	FillingsUpdate:  mu: -0.244750400  nElectrons: 592.086025
	Linear fluid (dielectric constant: 78.4, screening length: 5.74355 Bohr) occupying 0.714080 of unit cell:	Completed after 12 iterations at t[s]:   9662.02
SCF: Cycle: 84   G: -2534.744273292627440   dG: -1.674e-06   |Residual|: 2.604e-04   |deigs|: 3.867e-06  t[s]:   9663.94
	Linear fluid (dielectric constant: 78.4, screening length: 5.74355 Bohr) occupying 0.714057 of unit cell:	Completed after 10 iterations at t[s]:   9665.75
	FillingsUpdate:  mu: -0.244750400  nElectrons: 592.087519
	Linear fluid (dielectric constant: 78.4, screening length: 5.74355 Bohr) occupying 0.714080 of unit cell:	Completed after 10 iterations at t[s]:   9754.92
SCF: Cycle: 85   G: -2534.744272943434225   dG: +3.492e-07   |Residual|: 2.311e-04   |deigs|: 5.234e-06  t[s]:   9756.84
	Linear fluid (dielectric constant: 78.4, screening length: 5.74355 Bohr) occupying 0.714056 of unit cell:	Completed after 11 iterations at t[s]:   9758.85
	FillingsUpdate:  mu: -0.244750400  nElectrons: 592.094170
	Linear fluid (dielectric constant: 78.4, screening length: 5.74355 Bohr) occupying 0.714080 of unit cell:	Completed after 9 iterations at t[s]:   9848.43
SCF: Cycle: 86   G: -2534.744280089596487   dG: -7.146e-06   |Residual|: 1.800e-04   |deigs|: 1.599e-05  t[s]:   9850.40
	Linear fluid (dielectric constant: 78.4, screening length: 5.74355 Bohr) occupying 0.714054 of unit cell:	Completed after 8 iterations at t[s]:   9852.09
	FillingsUpdate:  mu: -0.244750400  nElectrons: 592.099237
	Linear fluid (dielectric constant: 78.4, screening length: 5.74355 Bohr) occupying 0.714080 of unit cell:	Completed after 3 iterations at t[s]:   9941.00
SCF: Cycle: 87   G: -2534.744280239517138   dG: -1.499e-07   |Residual|: 2.491e-04   |deigs|: 1.363e-05  t[s]:   9942.93
	Linear fluid (dielectric constant: 78.4, screening length: 5.74355 Bohr) occupying 0.714054 of unit cell:	Completed after 3 iterations at t[s]:   9944.04
	FillingsUpdate:  mu: -0.244750400  nElectrons: 592.076696
	Linear fluid (dielectric constant: 78.4, screening length: 5.74355 Bohr) occupying 0.714081 of unit cell:	Completed after 12 iterations at t[s]:  10090.33
SCF: Cycle: 88   G: -2534.744257908078453   dG: +2.233e-05   |Residual|: 3.850e-04   |deigs|: 4.373e-05  t[s]:  10092.20
	Linear fluid (dielectric constant: 78.4, screening length: 5.74355 Bohr) occupying 0.714054 of unit cell:	Completed after 12 iterations at t[s]:  10094.25
	FillingsUpdate:  mu: -0.244750400  nElectrons: 592.095115
	Linear fluid (dielectric constant: 78.4, screening length: 5.74355 Bohr) occupying 0.714080 of unit cell:	Completed after 9 iterations at t[s]:  10182.85
SCF: Cycle: 89   G: -2534.744279464401643   dG: -2.156e-05   |Residual|: 1.380e-04   |deigs|: 3.207e-05  t[s]:  10184.80
	Linear fluid (dielectric constant: 78.4, screening length: 5.74355 Bohr) occupying 0.714054 of unit cell:	Completed after 9 iterations at t[s]:  10186.56
	FillingsUpdate:  mu: -0.244750400  nElectrons: 592.100827
	Linear fluid (dielectric constant: 78.4, screening length: 5.74355 Bohr) occupying 0.714080 of unit cell:	Completed after 3 iterations at t[s]:  10275.08
SCF: Cycle: 90   G: -2534.744281176507684   dG: -1.712e-06   |Residual|: 1.480e-04   |deigs|: 1.215e-05  t[s]:  10277.05
	Linear fluid (dielectric constant: 78.4, screening length: 5.74355 Bohr) occupying 0.714054 of unit cell:	Completed after 3 iterations at t[s]:  10278.18
	FillingsUpdate:  mu: -0.244750400  nElectrons: 592.090583
	Linear fluid (dielectric constant: 78.4, screening length: 5.74355 Bohr) occupying 0.714080 of unit cell:	Completed after 9 iterations at t[s]:  10368.08
SCF: Cycle: 91   G: -2534.744278437123739   dG: +2.739e-06   |Residual|: 2.715e-04   |deigs|: 1.791e-05  t[s]:  10370.14
	Linear fluid (dielectric constant: 78.4, screening length: 5.74355 Bohr) occupying 0.714054 of unit cell:	Completed after 8 iterations at t[s]:  10371.83
	FillingsUpdate:  mu: -0.244750400  nElectrons: 592.099957
	Linear fluid (dielectric constant: 78.4, screening length: 5.74355 Bohr) occupying 0.714080 of unit cell:	Completed after 8 iterations at t[s]:  10460.38
SCF: Cycle: 92   G: -2534.744277896900712   dG: +5.402e-07   |Residual|: 3.108e-04   |deigs|: 2.175e-05  t[s]:  10462.25
	Linear fluid (dielectric constant: 78.4, screening length: 5.74355 Bohr) occupying 0.714064 of unit cell:	Completed after 5 iterations at t[s]:  10463.54
	FillingsUpdate:  mu: -0.244750400  nElectrons: 592.035302
	Linear fluid (dielectric constant: 78.4, screening length: 5.74355 Bohr) occupying 0.714079 of unit cell:	Completed after 15 iterations at t[s]:  10590.28
SCF: Cycle: 93   G: -2534.744122306178724   dG: +1.556e-04   |Residual|: 9.531e-04   |deigs|: 1.174e-04  t[s]:  10591.92
	Linear fluid (dielectric constant: 78.4, screening length: 5.74355 Bohr) occupying 0.714059 of unit cell:	Completed after 16 iterations at t[s]:  10594.33
	FillingsUpdate:  mu: -0.244750400  nElectrons: 592.076167
	Linear fluid (dielectric constant: 78.4, screening length: 5.74355 Bohr) occupying 0.714080 of unit cell:	Completed after 12 iterations at t[s]:  10683.15
SCF: Cycle: 94   G: -2534.744263595294342   dG: -1.413e-04   |Residual|: 4.615e-04   |deigs|: 7.455e-05  t[s]:  10685.22
	Linear fluid (dielectric constant: 78.4, screening length: 5.74355 Bohr) occupying 0.714059 of unit cell:	Completed after 12 iterations at t[s]:  10687.27
	FillingsUpdate:  mu: -0.244750400  nElectrons: 592.073743
	Linear fluid (dielectric constant: 78.4, screening length: 5.74355 Bohr) occupying 0.714080 of unit cell:	Completed after 12 iterations at t[s]:  10777.24
SCF: Cycle: 95   G: -2534.744251826786694   dG: +1.177e-05   |Residual|: 4.260e-04   |deigs|: 1.285e-05  t[s]:  10779.33
	Linear fluid (dielectric constant: 78.4, screening length: 5.74355 Bohr) occupying 0.714062 of unit cell:	Completed after 12 iterations at t[s]:  10781.48
	FillingsUpdate:  mu: -0.244750400  nElectrons: 592.071181
	Linear fluid (dielectric constant: 78.4, screening length: 5.74355 Bohr) occupying 0.714079 of unit cell:	Completed after 14 iterations at t[s]:  10871.39
SCF: Cycle: 96   G: -2534.744242428476355   dG: +9.398e-06   |Residual|: 4.561e-04   |deigs|: 7.621e-06  t[s]:  10873.23
	Linear fluid (dielectric constant: 78.4, screening length: 5.74355 Bohr) occupying 0.714064 of unit cell:	Completed after 14 iterations at t[s]:  10875.48
	FillingsUpdate:  mu: -0.244750400  nElectrons: 592.052877
	Linear fluid (dielectric constant: 78.4, screening length: 5.74355 Bohr) occupying 0.714078 of unit cell:	Completed after 14 iterations at t[s]:  10965.24
SCF: Cycle: 97   G: -2534.744204016869844   dG: +3.841e-05   |Residual|: 7.518e-04   |deigs|: 3.148e-05  t[s]:  10966.96
	Linear fluid (dielectric constant: 78.4, screening length: 5.74355 Bohr) occupying 0.714056 of unit cell:	Completed after 14 iterations at t[s]:  10969.21
	FillingsUpdate:  mu: -0.244750400  nElectrons: 592.083682
	Linear fluid (dielectric constant: 78.4, screening length: 5.74355 Bohr) occupying 0.714080 of unit cell:	Completed after 12 iterations at t[s]:  11059.18
SCF: Cycle: 98   G: -2534.744270570528442   dG: -6.655e-05   |Residual|: 3.031e-04   |deigs|: 5.312e-05  t[s]:  11061.28
	Linear fluid (dielectric constant: 78.4, screening length: 5.74355 Bohr) occupying 0.714058 of unit cell:	Completed after 12 iterations at t[s]:  11063.38
	FillingsUpdate:  mu: -0.244750400  nElectrons: 592.076432
	Linear fluid (dielectric constant: 78.4, screening length: 5.74355 Bohr) occupying 0.714080 of unit cell:	Completed after 12 iterations at t[s]:  11154.03
SCF: Cycle: 99   G: -2534.744258872002320   dG: +1.170e-05   |Residual|: 3.970e-04   |deigs|: 1.439e-05  t[s]:  11156.09
	Linear fluid (dielectric constant: 78.4, screening length: 5.74355 Bohr) occupying 0.714056 of unit cell:	Completed after 12 iterations at t[s]:  11158.17
	FillingsUpdate:  mu: -0.244750400  nElectrons: 592.086868
	Linear fluid (dielectric constant: 78.4, screening length: 5.74355 Bohr) occupying 0.714080 of unit cell:	Completed after 12 iterations at t[s]:  11248.88
SCF: Cycle: 100   G: -2534.744271552905047   dG: -1.268e-05   |Residual|: 2.519e-04   |deigs|: 1.823e-05  t[s]:  11250.74
	Linear fluid (dielectric constant: 78.4, screening length: 5.74355 Bohr) occupying 0.714055 of unit cell:	Completed after 12 iterations at t[s]:  11252.77
	FillingsUpdate:  mu: -0.244750400  nElectrons: 592.086278
	Linear fluid (dielectric constant: 78.4, screening length: 5.74355 Bohr) occupying 0.714080 of unit cell:	Completed after 10 iterations at t[s]:  11343.17
SCF: Cycle: 101   G: -2534.744273859243094   dG: -2.306e-06   |Residual|: 2.977e-04   |deigs|: 7.734e-06  t[s]:  11345.10
	Linear fluid (dielectric constant: 78.4, screening length: 5.74355 Bohr) occupying 0.714055 of unit cell:	Completed after 10 iterations at t[s]:  11346.86
	FillingsUpdate:  mu: -0.244750400  nElectrons: 592.088626
	Linear fluid (dielectric constant: 78.4, screening length: 5.74355 Bohr) occupying 0.714080 of unit cell:	Completed after 10 iterations at t[s]:  11437.77
SCF: Cycle: 102   G: -2534.744272927506245   dG: +9.317e-07   |Residual|: 2.900e-04   |deigs|: 1.029e-05  t[s]:  11439.81
	Linear fluid (dielectric constant: 78.4, screening length: 5.74355 Bohr) occupying 0.714054 of unit cell:	Completed after 10 iterations at t[s]:  11441.65
	FillingsUpdate:  mu: -0.244750400  nElectrons: 592.098595
	Linear fluid (dielectric constant: 78.4, screening length: 5.74355 Bohr) occupying 0.714080 of unit cell:	Completed after 4 iterations at t[s]:  11530.02
SCF: Cycle: 103   G: -2534.744279676210681   dG: -6.749e-06   |Residual|: 2.053e-04   |deigs|: 1.857e-05  t[s]:  11531.91
	Linear fluid (dielectric constant: 78.4, screening length: 5.74355 Bohr) occupying 0.714054 of unit cell:	Completed after 4 iterations at t[s]:  11533.10
	FillingsUpdate:  mu: -0.244750400  nElectrons: 592.111523
	Linear fluid (dielectric constant: 78.4, screening length: 5.74355 Bohr) occupying 0.714081 of unit cell:	Completed after 12 iterations at t[s]:  11622.77
SCF: Cycle: 104   G: -2534.744259331118883   dG: +2.035e-05   |Residual|: 4.869e-04   |deigs|: 4.367e-05  t[s]:  11624.69
	Linear fluid (dielectric constant: 78.4, screening length: 5.74355 Bohr) occupying 0.714061 of unit cell:	Completed after 12 iterations at t[s]:  11626.71
	FillingsUpdate:  mu: -0.244750400  nElectrons: 592.064403
	Linear fluid (dielectric constant: 78.4, screening length: 5.74355 Bohr) occupying 0.714078 of unit cell:	Completed after 12 iterations at t[s]:  11716.68
SCF: Cycle: 105   G: -2534.744243287922927   dG: +1.604e-05   |Residual|: 6.235e-04   |deigs|: 8.617e-05  t[s]:  11718.93
	Linear fluid (dielectric constant: 78.4, screening length: 5.74355 Bohr) occupying 0.714061 of unit cell:	Completed after 12 iterations at t[s]:  11720.95
	FillingsUpdate:  mu: -0.244750400  nElectrons: 592.072869
	Linear fluid (dielectric constant: 78.4, screening length: 5.74355 Bohr) occupying 0.714080 of unit cell:	Completed after 12 iterations at t[s]:  11810.32
SCF: Cycle: 106   G: -2534.744245509820303   dG: -2.222e-06   |Residual|: 4.208e-04   |deigs|: 1.976e-05  t[s]:  11812.20
	Linear fluid (dielectric constant: 78.4, screening length: 5.74355 Bohr) occupying 0.714059 of unit cell:	Completed after 13 iterations at t[s]:  11814.39
	FillingsUpdate:  mu: -0.244750400  nElectrons: 592.073934
	Linear fluid (dielectric constant: 78.4, screening length: 5.74355 Bohr) occupying 0.714079 of unit cell:	Completed after 11 iterations at t[s]:  11903.57
SCF: Cycle: 107   G: -2534.744259071637316   dG: -1.356e-05   |Residual|: 4.912e-04   |deigs|: 1.711e-05  t[s]:  11905.52
	Linear fluid (dielectric constant: 78.4, screening length: 5.74355 Bohr) occupying 0.714059 of unit cell:	Completed after 12 iterations at t[s]:  11907.63
	FillingsUpdate:  mu: -0.244750400  nElectrons: 592.071729
	Linear fluid (dielectric constant: 78.4, screening length: 5.74355 Bohr) occupying 0.714080 of unit cell:	Completed after 14 iterations at t[s]:  11997.14
SCF: Cycle: 108   G: -2534.744246160554212   dG: +1.291e-05   |Residual|: 4.565e-04   |deigs|: 1.334e-05  t[s]:  11999.28
	Linear fluid (dielectric constant: 78.4, screening length: 5.74355 Bohr) occupying 0.714056 of unit cell:	Completed after 14 iterations at t[s]:  12001.54
	FillingsUpdate:  mu: -0.244750400  nElectrons: 592.081209
	Linear fluid (dielectric constant: 78.4, screening length: 5.74355 Bohr) occupying 0.714080 of unit cell:	Completed after 12 iterations at t[s]:  12091.83
SCF: Cycle: 109   G: -2534.744269446155158   dG: -2.329e-05   |Residual|: 3.817e-04   |deigs|: 2.230e-05  t[s]:  12093.63
	Linear fluid (dielectric constant: 78.4, screening length: 5.74355 Bohr) occupying 0.714062 of unit cell:	Completed after 11 iterations at t[s]:  12095.76
	FillingsUpdate:  mu: -0.244750400  nElectrons: 592.069371
	Linear fluid (dielectric constant: 78.4, screening length: 5.74355 Bohr) occupying 0.714080 of unit cell:	Completed after 14 iterations at t[s]:  12186.65
SCF: Cycle: 110   G: -2534.744243288638245   dG: +2.616e-05   |Residual|: 4.875e-04   |deigs|: 2.455e-05  t[s]:  12188.72
	Linear fluid (dielectric constant: 78.4, screening length: 5.74355 Bohr) occupying 0.714058 of unit cell:	Completed after 13 iterations at t[s]:  12190.92
	FillingsUpdate:  mu: -0.244750400  nElectrons: 592.074674
	Linear fluid (dielectric constant: 78.4, screening length: 5.74355 Bohr) occupying 0.714080 of unit cell:	Completed after 12 iterations at t[s]:  12280.75
SCF: Cycle: 111   G: -2534.744257784574984   dG: -1.450e-05   |Residual|: 4.448e-04   |deigs|: 1.269e-05  t[s]:  12282.75
	Linear fluid (dielectric constant: 78.4, screening length: 5.74355 Bohr) occupying 0.714057 of unit cell:	Completed after 12 iterations at t[s]:  12284.79
	FillingsUpdate:  mu: -0.244750400  nElectrons: 592.074041
	Linear fluid (dielectric constant: 78.4, screening length: 5.74355 Bohr) occupying 0.714080 of unit cell:	Completed after 12 iterations at t[s]:  12384.90
SCF: Cycle: 112   G: -2534.744250251495941   dG: +7.533e-06   |Residual|: 4.154e-04   |deigs|: 8.284e-06  t[s]:  12387.09
	Linear fluid (dielectric constant: 78.4, screening length: 5.74355 Bohr) occupying 0.714059 of unit cell:	Completed after 12 iterations at t[s]:  12389.45
	FillingsUpdate:  mu: -0.244750400  nElectrons: 592.080463
	Linear fluid (dielectric constant: 78.4, screening length: 5.74355 Bohr) occupying 0.714080 of unit cell:	Completed after 12 iterations at t[s]:  12481.24
SCF: Cycle: 113   G: -2534.744262345284824   dG: -1.209e-05   |Residual|: 3.299e-04   |deigs|: 1.202e-05  t[s]:  12483.39
	Linear fluid (dielectric constant: 78.4, screening length: 5.74355 Bohr) occupying 0.714059 of unit cell:	Completed after 12 iterations at t[s]:  12485.62
	FillingsUpdate:  mu: -0.244750400  nElectrons: 592.086550
	Linear fluid (dielectric constant: 78.4, screening length: 5.74355 Bohr) occupying 0.714080 of unit cell:	Completed after 10 iterations at t[s]:  12576.29
SCF: Cycle: 114   G: -2534.744272187885144   dG: -9.843e-06   |Residual|: 2.462e-04   |deigs|: 1.199e-05  t[s]:  12578.13
	Linear fluid (dielectric constant: 78.4, screening length: 5.74355 Bohr) occupying 0.714062 of unit cell:	Completed after 10 iterations at t[s]:  12580.03
	FillingsUpdate:  mu: -0.244750400  nElectrons: 592.095159
	Linear fluid (dielectric constant: 78.4, screening length: 5.74355 Bohr) occupying 0.714081 of unit cell:	Completed after 9 iterations at t[s]:  12669.21
SCF: Cycle: 115   G: -2534.744277517411319   dG: -5.330e-06   |Residual|: 1.492e-04   |deigs|: 1.515e-05  t[s]:  12671.13
	Linear fluid (dielectric constant: 78.4, screening length: 5.74355 Bohr) occupying 0.714067 of unit cell:	Completed after 9 iterations at t[s]:  12673.00
	FillingsUpdate:  mu: -0.244750400  nElectrons: 592.085684
	Linear fluid (dielectric constant: 78.4, screening length: 5.74355 Bohr) occupying 0.714081 of unit cell:	Completed after 10 iterations at t[s]:  12763.14
SCF: Cycle: 116   G: -2534.744272326602186   dG: +5.191e-06   |Residual|: 2.970e-04   |deigs|: 1.802e-05  t[s]:  12765.25
	Linear fluid (dielectric constant: 78.4, screening length: 5.74355 Bohr) occupying 0.714068 of unit cell:	Completed after 10 iterations at t[s]:  12767.22
	FillingsUpdate:  mu: -0.244750400  nElectrons: 592.075025
	Linear fluid (dielectric constant: 78.4, screening length: 5.74355 Bohr) occupying 0.714081 of unit cell:	Completed after 13 iterations at t[s]:  12857.99
SCF: Cycle: 117   G: -2534.744249429239062   dG: +2.290e-05   |Residual|: 4.252e-04   |deigs|: 2.266e-05  t[s]:  12859.83
	Linear fluid (dielectric constant: 78.4, screening length: 5.74355 Bohr) occupying 0.714063 of unit cell:	Completed after 14 iterations at t[s]:  12862.16
	FillingsUpdate:  mu: -0.244750400  nElectrons: 592.078283
	Linear fluid (dielectric constant: 78.4, screening length: 5.74355 Bohr) occupying 0.714080 of unit cell:	Completed after 11 iterations at t[s]:  12953.13
SCF: Cycle: 118   G: -2534.744265167990307   dG: -1.574e-05   |Residual|: 3.996e-04   |deigs|: 1.856e-05  t[s]:  12955.01
	Linear fluid (dielectric constant: 78.4, screening length: 5.74355 Bohr) occupying 0.714062 of unit cell:	Completed after 11 iterations at t[s]:  12956.96
	FillingsUpdate:  mu: -0.244750400  nElectrons: 592.078923
	Linear fluid (dielectric constant: 78.4, screening length: 5.74355 Bohr) occupying 0.714081 of unit cell:	Completed after 12 iterations at t[s]:  13047.50
SCF: Cycle: 119   G: -2534.744258640721910   dG: +6.527e-06   |Residual|: 3.412e-04   |deigs|: 1.201e-05  t[s]:  13049.37
	Linear fluid (dielectric constant: 78.4, screening length: 5.74355 Bohr) occupying 0.714067 of unit cell:	Completed after 12 iterations at t[s]:  13051.38
	FillingsUpdate:  mu: -0.244750400  nElectrons: 592.082150
	Linear fluid (dielectric constant: 78.4, screening length: 5.74355 Bohr) occupying 0.714081 of unit cell:	Completed after 12 iterations at t[s]:  13142.40
SCF: Cycle: 120   G: -2534.744265203766190   dG: -6.563e-06   |Residual|: 2.957e-04   |deigs|: 8.034e-06  t[s]:  13144.45
	Linear fluid (dielectric constant: 78.4, screening length: 5.74355 Bohr) occupying 0.714072 of unit cell:	Completed after 12 iterations at t[s]:  13146.62
	FillingsUpdate:  mu: -0.244750400  nElectrons: 592.080531
	Linear fluid (dielectric constant: 78.4, screening length: 5.74355 Bohr) occupying 0.714081 of unit cell:	Completed after 12 iterations at t[s]:  13235.87
SCF: Cycle: 121   G: -2534.744262748189158   dG: +2.456e-06   |Residual|: 3.185e-04   |deigs|: 3.992e-06  t[s]:  13237.84
	Linear fluid (dielectric constant: 78.4, screening length: 5.74355 Bohr) occupying 0.714065 of unit cell:	Completed after 12 iterations at t[s]:  13239.96
	FillingsUpdate:  mu: -0.244750400  nElectrons: 592.086558
	Linear fluid (dielectric constant: 78.4, screening length: 5.74355 Bohr) occupying 0.714081 of unit cell:	Completed after 10 iterations at t[s]:  13331.47
SCF: Cycle: 122   G: -2534.744271908920837   dG: -9.161e-06   |Residual|: 2.351e-04   |deigs|: 1.144e-05  t[s]:  13333.42
	Linear fluid (dielectric constant: 78.4, screening length: 5.74355 Bohr) occupying 0.714063 of unit cell:	Completed after 10 iterations at t[s]:  13335.22
	FillingsUpdate:  mu: -0.244750400  nElectrons: 592.093052
	Linear fluid (dielectric constant: 78.4, screening length: 5.74355 Bohr) occupying 0.714081 of unit cell:	Completed after 8 iterations at t[s]:  13421.40
SCF: Cycle: 123   G: -2534.744277139797305   dG: -5.231e-06   |Residual|: 1.535e-04   |deigs|: 1.097e-05  t[s]:  13423.29
	Linear fluid (dielectric constant: 78.4, screening length: 5.74355 Bohr) occupying 0.714067 of unit cell:	Completed after 8 iterations at t[s]:  13425.21
	FillingsUpdate:  mu: -0.244750400  nElectrons: 592.095675
	Linear fluid (dielectric constant: 78.4, screening length: 5.74355 Bohr) occupying 0.714082 of unit cell:	Completed after 7 iterations at t[s]:  13514.63
SCF: Cycle: 124   G: -2534.744279877569625   dG: -2.738e-06   |Residual|: 1.811e-04   |deigs|: 1.004e-05  t[s]:  13516.71
	Linear fluid (dielectric constant: 78.4, screening length: 5.74355 Bohr) occupying 0.714068 of unit cell:	Completed after 8 iterations at t[s]:  13518.35
	FillingsUpdate:  mu: -0.244750400  nElectrons: 592.096618
	Linear fluid (dielectric constant: 78.4, screening length: 5.74355 Bohr) occupying 0.714081 of unit cell:	Completed after 7 iterations at t[s]:  13606.53
SCF: Cycle: 125   G: -2534.744277108248298   dG: +2.769e-06   |Residual|: 3.959e-04   |deigs|: 1.927e-05  t[s]:  13608.39
	Linear fluid (dielectric constant: 78.4, screening length: 5.74355 Bohr) occupying 0.714064 of unit cell:	Completed after 7 iterations at t[s]:  13609.96
	FillingsUpdate:  mu: -0.244750400  nElectrons: 592.071313
	Linear fluid (dielectric constant: 78.4, screening length: 5.74355 Bohr) occupying 0.714080 of unit cell:	Completed after 11 iterations at t[s]:  13700.76
SCF: Cycle: 126   G: -2534.744255923596029   dG: +2.118e-05   |Residual|: 5.575e-04   |deigs|: 4.587e-05  t[s]:  13702.82
	Linear fluid (dielectric constant: 78.4, screening length: 5.74355 Bohr) occupying 0.714067 of unit cell:	Completed after 11 iterations at t[s]:  13705.11
	FillingsUpdate:  mu: -0.244750400  nElectrons: 592.073217
	Linear fluid (dielectric constant: 78.4, screening length: 5.74355 Bohr) occupying 0.714081 of unit cell:	Completed after 14 iterations at t[s]:  13796.22
[...]
Setting up double-sized grid for truncated Coulomb potentials:
R = 
[    16.7699          0          0  ]
[          0    25.1035          0  ]
[          0          0    113.193  ]
unit cell volume = 47652.4
G =
[    0.37467          0          0  ]
[          0   0.250291          0  ]
[          0          0  0.0555087  ]
Chosen fftbox size, S = [  80  120  512  ]
Integer grid location selected as the embedding center:
   Grid: [  0  0  128  ]
   Lattice: [  0  0  0.5  ]
   Cartesian: [  0  0  28.2982  ]
Constructing Wigner-Seitz cell: 6 faces (6 quadrilaterals, 0 hexagons)
Range-separation parameter for embedded mesh potentials due to point charges: 0.593177 bohrs.

Initializing van der Waals corrections
	NOTE: vdW corrections apply only for interactions with fluid.
	Bi:  C6:  893.28 Eh-a0^6  R0: 3.555 a0 (WARNING: beyond Grimme's data set)
	 I:  C6:  546.38 Eh-a0^6  R0: 3.575 a0

---------- Setting up ewald sum ----------
Optimum gaussian width for ewald sums = 7.697731 bohr.
Real space sum over 585 unit cells with max indices [  6  4  2  ]
Reciprocal space sum over 7007 terms with max indices [  5  6  24  ]

---------- Allocating electronic variables ----------
Initializing wave functions:  reading from 'NbTe2.wfns'
----- createFluidSolver() ----- (Fluid-side solver setup)
   Initializing fluid molecule 'H2O'
     Initializing site 'O'
       Electron density: proportional to exp(-r/0.36935)*erfc((r-0.51523)/0.36823) with norm 6.826
       Charge density: gaussian nuclear width 0.478731 with net site charge 0.826
       Polarizability: cuspless exponential with width 0.32 and norm 3.73
       Hard sphere radius: 2.57003 bohrs
       Positions in reference frame:
         [ +0.000000 +0.000000 +0.000000 ]
     Initializing site 'H'
       Electron density: proportional to exp(-r/0.34641)*erfc((r-0)/0.390882) with norm 0.587
       Charge density: gaussian nuclear width 0.377945 with net site charge -0.413
       Polarizability: cuspless exponential with width 0.39 and norm 3.3
       Positions in reference frame:
         [ +0.000000 -1.441945 +1.122523 ]
         [ +0.000000 +1.441945 +1.122523 ]
     Net charge: 0   dipole magnitude: 0.927204
     Initializing spherical shell mfKernel with radius 2.61727 Bohr
     deltaS corrections:
       site 'O': -7.54299
       site 'H': -6.83917
   Initializing fluid molecule 'Na+'
     Initializing site 'Na'
       Electron density: proportional to exp(-r/0.19682)*erfc((r-0.71491)/0.41314) with norm 8.1383
       Charge density: gaussian nuclear width 0.365347 with net site charge -1
       Hard sphere radius: 1.86327 bohrs
       Positions in reference frame:
         [ +0.000000 +0.000000 +0.000000 ]
     Net charge: -1   dipole magnitude: 0
     Initializing gaussian mfKernel with width: 1.55004 Bohr
     deltaS corrections:
       site 'Na': -22.3555
   Initializing fluid molecule 'F-'
     Initializing site 'F'
       Electron density: proportional to exp(-r/0.38886)*erfc((r-0)/0.438782) with norm 8
       Charge density: gaussian nuclear width 0.374796 with net site charge 1
       Hard sphere radius: 2.39995 bohrs
       Positions in reference frame:
         [ +0.000000 +0.000000 +0.000000 ]
     Net charge: 1   dipole magnitude: 0
     Initializing gaussian mfKernel with width: 1.59012 Bohr
     deltaS corrections:
       site 'F': -9.04335

Correction to mu due to finite nuclear width = -0.0124097
   Cavity determined by nc: 0.00142 and sigma: 0.707107
   Nonlocal vdW cavity from gaussian model electron density with norm = 8 and sigma = 0.993594 bohr
   Charge asymmetry in cavity with sensitivity pCavity = 36.5 e-bohr/Eh
   Electrostatic cavity expanded by eta = 1.46 bohrs
   Weighted density cavitation model constrained by Nbulk: 0.0049383 bohr^-3, Pvap: 3.14029 kPa, Rvdw: 2.61727 bohr and sigmaBulk: 4.62e-05 Eh/bohr^2 at T: 298 K.
   Weighted density dispersion model using vdW pair potentials with single solvent site with sqrtC6eff: 0.77 SI.
Reading fluid state from 'NbTe2.fluidState'


---- Citations for features of the code used in this run ----

   Software package:
      R. Sundararaman, K. Letchworth-Weaver, K.A. Schwarz, D. Gunceler, Y. Ozhabes and T.A. Arias, 'JDFTx: software for joint density-functional theory', SoftwareX 6, 278 (2017)

   gga-PBE exchange-correlation functional:
      J.P. Perdew, K. Burke and M. Ernzerhof, Phys. Rev. Lett. 77, 3865 (1996)

   Pseudopotentials:
      KF Garrity, JW Bennett, KM Rabe and D Vanderbilt, Comput. Mater. Sci. 81, 446 (2014)

   Truncated Coulomb potentials:
      R. Sundararaman and T.A. Arias, Phys. Rev. B 87, 165122 (2013)

   Van der Waals correction pair-potentials:
      S. Grimme, J. Comput. Chem. 27, 1787 (2006)

   Charge-asymmetric nonlocally-determined local-electric (CANDLE) solvation model:
      R. Sundararaman and W.A. Goddard III, J. Chem. Phys. 142, 064107 (2015)

   Total energy minimization with Auxiliary Hamiltonian:
      C. Freysoldt, S. Boeck, and J. Neugebauer, Phys. Rev. B 79, 241103(R) (2009)

   Grand-canonical (fixed-potential) DFT:
      R. Sundararaman, W. A. Goddard III and T. A. Arias, J. Chem. Phys. 146, 114104 (2017)

This list may not be complete. Please suggest additional citations or
report any other bugs at https://github.com/shankar1729/jdftx/issues

Initialization completed successfully at t[s]:     29.36

Shifting auxilliary hamiltonian by -0.000093 to set nElectrons=592.100642
	Linear fluid (dielectric constant: 78.4, screening length: 5.74355 Bohr) occupying 0.714082 of unit cell:	Completed after 9 iterations at t[s]:     39.32

-------- Electronic minimization -----------
	Linear fluid (dielectric constant: 78.4, screening length: 5.74355 Bohr) occupying 0.714082 of unit cell:	Completed after 0 iterations at t[s]:     59.12
	FillingsUpdate:  mu: -0.244750400  nElectrons: 592.100642
ElecMinimize: Iter:   0  G: -2534.744266324479213  |grad|_K:  1.011e-06  alpha:  1.000e+00
	Linear fluid (dielectric constant: 78.4, screening length: 5.74355 Bohr) occupying 0.714090 of unit cell:	Completed after 21 iterations at t[s]:    100.52
	Linear fluid (dielectric constant: 78.4, screening length: 5.74355 Bohr) occupying 0.714082 of unit cell:	Completed after 21 iterations at t[s]:    117.48
	FillingsUpdate:  mu: -0.244750400  nElectrons: 592.110066
	SubspaceRotationAdjust: set factor to 0.527
ElecMinimize: Iter:   1  G: -2534.744272226358589  |grad|_K:  2.830e-07  alpha:  2.515e-02  linmin: -1.720e-03  cgtest:  9.395e-02  t[s]:    136.19
	Linear fluid (dielectric constant: 78.4, screening length: 5.74355 Bohr) occupying 0.714082 of unit cell:	Completed after 0 iterations at t[s]:    153.47
ElecMinimize: 	Predicted alpha/alphaT>3.000000, increasing alphaT to 7.544828e-02.
	Linear fluid (dielectric constant: 78.4, screening length: 5.74355 Bohr) occupying 0.714083 of unit cell:	Completed after 3 iterations at t[s]:    169.27
	Linear fluid (dielectric constant: 78.4, screening length: 5.74355 Bohr) occupying 0.714083 of unit cell:	Completed after 3 iterations at t[s]:    184.89
	FillingsUpdate:  mu: -0.244750400  nElectrons: 592.100982
	SubspaceRotationAdjust: set factor to 0.318
ElecMinimize: Iter:   2  G: -2534.744274588624648  |grad|_K:  5.527e-08  alpha:  1.366e-01  linmin:  1.690e-04  cgtest:  3.485e-02  t[s]:    202.44
	Linear fluid (dielectric constant: 78.4, screening length: 5.74355 Bohr) occupying 0.714083 of unit cell:	Completed after 0 iterations at t[s]:    220.26
ElecMinimize: 	Predicted alpha/alphaT>3.000000, increasing alphaT to 4.098079e-01.
	Linear fluid (dielectric constant: 78.4, screening length: 5.74355 Bohr) occupying 0.714083 of unit cell:	Completed after 5 iterations at t[s]:    237.26
	Linear fluid (dielectric constant: 78.4, screening length: 5.74355 Bohr) occupying 0.714083 of unit cell:	Completed after 3 iterations at t[s]:    254.75
ElecMinimize: 	Step increased G by 7.540712e-08, reducing alpha to 1.068921e-02.
	Linear fluid (dielectric constant: 78.4, screening length: 5.74355 Bohr) occupying 0.714083 of unit cell:	Completed after 0 iterations at t[s]:    287.62
	FillingsUpdate:  mu: -0.244750400  nElectrons: 592.100862
	SubspaceRotationAdjust: set factor to 0.165
ElecMinimize: Iter:   3  G: -2534.744274592603688  |grad|_K:  1.060e-07  alpha:  1.069e-02  linmin:  7.776e-03  cgtest: -1.641e-01  t[s]:    305.86
	Linear fluid (dielectric constant: 78.4, screening length: 5.74355 Bohr) occupying 0.714083 of unit cell:	Completed after 0 iterations at t[s]:    323.13
ElecMinimize: 	Predicted alpha/alphaT>3.000000, increasing alphaT to 3.206762e-02.
	Linear fluid (dielectric constant: 78.4, screening length: 5.74355 Bohr) occupying 0.714083 of unit cell:	Completed after 0 iterations at t[s]:    338.42
ElecMinimize: 	Predicted alpha/alphaT>3.000000, increasing alphaT to 9.620287e-02.
	Linear fluid (dielectric constant: 78.4, screening length: 5.74355 Bohr) occupying 0.714083 of unit cell:	Completed after 0 iterations at t[s]:    352.77
ElecMinimize: 	Predicted alpha/alphaT>3.000000, increasing alphaT to 2.886086e-01.
	Linear fluid (dielectric constant: 78.4, screening length: 5.74355 Bohr) occupying 0.714083 of unit cell:	Completed after 8 iterations at t[s]:    370.20
ElecMinimize: 	Step increased G by 4.835661e-06, reducing alpha to 6.092666e-02.
	Linear fluid (dielectric constant: 78.4, screening length: 5.74355 Bohr) occupying 0.714083 of unit cell:	Completed after 6 iterations at t[s]:    403.81
	FillingsUpdate:  mu: -0.244750400  nElectrons: 592.100737
	SubspaceRotationAdjust: set factor to 0.0649
	SubspaceRotationAdjust: resetting CG because factor has changed by 0.0648695
	Linear fluid (dielectric constant: 78.4, screening length: 5.74355 Bohr) occupying 0.714083 of unit cell:	Completed after 0 iterations at t[s]:    431.22
ElecMinimize: 	State modified externally: resetting search direction.
ElecMinimize: Iter:   4  G: -2534.744274726733693  |grad|_K:  2.637e-08  alpha:  6.093e-02
	Linear fluid (dielectric constant: 78.4, screening length: 5.74355 Bohr) occupying 0.714083 of unit cell:	Completed after 0 iterations at t[s]:    466.70
ElecMinimize: 	Predicted alpha/alphaT>3.000000, increasing alphaT to 1.827800e-01.
	Linear fluid (dielectric constant: 78.4, screening length: 5.74355 Bohr) occupying 0.714083 of unit cell:	Completed after 0 iterations at t[s]:    482.10
	Linear fluid (dielectric constant: 78.4, screening length: 5.74355 Bohr) occupying 0.714083 of unit cell:	Completed after 0 iterations at t[s]:    497.22
	FillingsUpdate:  mu: -0.244750400  nElectrons: 592.100405
	SubspaceRotationAdjust: set factor to 0.0243
ElecMinimize: Iter:   5  G: -2534.744274751105422  |grad|_K:  2.320e-08  alpha:  1.750e-01  linmin: -3.105e-02  cgtest:  9.944e-01  t[s]:    516.33
ElecMinimize: Encountered beta<0, resetting CG.
	Linear fluid (dielectric constant: 78.4, screening length: 5.74355 Bohr) occupying 0.714083 of unit cell:	Completed after 0 iterations at t[s]:    533.61
ElecMinimize: 	Predicted alpha/alphaT>3.000000, increasing alphaT to 5.250240e-01.
	Linear fluid (dielectric constant: 78.4, screening length: 5.74355 Bohr) occupying 0.714083 of unit cell:	Completed after 3 iterations at t[s]:    550.38
	Linear fluid (dielectric constant: 78.4, screening length: 5.74355 Bohr) occupying 0.714083 of unit cell:	Completed after 0 iterations at t[s]:    565.86
ElecMinimize: 	Step increased G by 1.063186e-07, reducing alpha to 1.097772e-02.
	Linear fluid (dielectric constant: 78.4, screening length: 5.74355 Bohr) occupying 0.714083 of unit cell:	Completed after 0 iterations at t[s]:    598.42
ElecMinimize: 	Step increased G by 8.839152e-08, reducing alpha to 1.097772e-03.
	Linear fluid (dielectric constant: 78.4, screening length: 5.74355 Bohr) occupying 0.714083 of unit cell:	Completed after 0 iterations at t[s]:    630.45
ElecMinimize: 	Step increased G by 8.663983e-08, reducing alpha to 1.097772e-04.
ElecMinimize: 	Step failed to reduce G after 3 attempts. Quitting step.
ElecMinimize: 	Undoing step.
	Linear fluid (dielectric constant: 78.4, screening length: 5.74355 Bohr) occupying 0.714083 of unit cell:	Completed after 0 iterations at t[s]:    662.36
ElecMinimize: 	Step failed along negative gradient direction.
ElecMinimize: Probably at roundoff error limit. (Stopping)
Setting wave functions to eigenvectors of Hamiltonian

# Ionic positions in lattice coordinates:
ion Bi   0.375000000000001   0.659277061583945   0.657210505006790 0
ion Bi   0.875000000000001   0.659277061583945   0.657210505006790 0
ion Bi   0.125000000000001   0.340717944400414   0.342789605980253 0
ion Bi   0.625000000000001   0.340717944400414   0.342789605980253 0
ion Bi   0.375000000000001   0.301072483986115   0.411847553708424 0
ion Bi   0.875000000000001   0.301072483986115   0.411847553708424 0
ion Bi   0.125000000000001   0.698931179730543   0.588152858864090 0
ion Bi   0.625000000000001   0.698931179730543   0.588152858864090 0
ion Bi   0.375000000000001   0.077976990267745   0.382961306575626 0
ion Bi   0.875000000000001   0.077976990267745   0.382961306575626 0
ion Bi   0.125000000000001   0.922024645065113   0.617040425250383 0
ion Bi   0.625000000000001   0.922024645065113   0.617040425250383 0
ion Bi   0.375000000000001   0.974419433079402   0.550905783580324 0
ion Bi   0.875000000000001   0.974419433079402   0.550905783580324 0
ion Bi   0.125000000000001   0.025579291374776   0.449095635323685 0
ion Bi   0.625000000000001   0.025579291374776   0.449095635323685 0
ion Bi   0.375000000000001   0.199961567387887   0.578021021590321 0
ion Bi   0.875000000000001   0.199961567387887   0.578021021590321 0
ion Bi   0.125000000000001   0.800037473233163   0.421977876572631 0
ion Bi   0.625000000000001   0.800037473233163   0.421977876572631 0
ion Bi   0.375000000000001   0.754275232692878   0.489961033108346 0
ion Bi   0.875000000000001   0.754275232692878   0.489961033108346 0
ion Bi   0.125000000000001   0.245729472025270   0.510033702369402 0
ion Bi   0.625000000000001   0.245729472025270   0.510033702369402 0
ion Bi   0.375000000000001   0.525786075454492   0.466774305817052 0
ion Bi   0.875000000000001   0.525786075454492   0.466774305817052 0
ion Bi   0.125000000000001   0.474209224084776   0.533224110290303 0
ion Bi   0.625000000000001   0.474209224084776   0.533224110290303 0
ion Bi   0.125000000000001   0.563712398985152   0.367035125103621 0
ion Bi   0.625000000000001   0.563712398985152   0.367035125103621 0
ion Bi   0.375000000000001   0.436281012120547   0.632965908580814 0
ion Bi   0.875000000000001   0.436281012120547   0.632965908580814 0
ion Bi   0.125000000000001   0.385979112747197   0.701118789460922 0
ion Bi   0.625000000000001   0.385979112747197   0.701118789460922 0
ion Bi   0.375000000000001   0.614016934146848   0.298882386607767 0
ion Bi   0.875000000000001   0.614016934146848   0.298882386607767 0
ion I   0.125000000000001   0.593909268057357   0.745449596238339 0
ion I   0.625000000000001   0.593909268057357   0.745449596238339 0
ion I   0.375000000000001   0.406102267537234   0.254548721402561 0
ion I   0.875000000000001   0.406102267537234   0.254548721402561 0
ion I   0.125000000000001   0.158071797795715   0.673016264063717 0
ion I   0.625000000000001   0.158071797795715   0.673016264063717 0
ion I   0.375000000000001   0.841929134243401   0.326987484504620 0
ion I   0.875000000000001   0.841929134243401   0.326987484504620 0


# Forces in Lattice coordinates:
force Bi  -0.000000000000000  -0.045578394340590   0.461308192774380 0
force Bi   0.000000000000000  -0.045578394340590   0.461308192774380 0
force Bi   0.000000000000000   0.046247574620297  -0.455128391154218 0
force Bi   0.000000000000000   0.046247574620297  -0.455128391153309 0
force Bi   0.000000000000000  -0.014189247895449   0.097941501512049 0
force Bi   0.000000000000000  -0.014189247895449   0.097941501512048 0
force Bi   0.000000000000000   0.014053052828527  -0.096393077505791 0
force Bi   0.000000000000000   0.014053052828527  -0.096393077506246 0
force Bi   0.000000000000000  -0.094607848728524  -0.159052054049958 0
force Bi   0.000000000000000  -0.094607848728524  -0.159052054049958 0
force Bi   0.000000000000000   0.094658726127735   0.165093579436714 0
force Bi   0.000000000000000   0.094658726127749   0.165093579437167 0
force Bi   0.000000000000000  -0.000075192961211  -0.111308071572761 0
force Bi  -0.000000000000000  -0.000075192961211  -0.111308071572534 0
force Bi   0.000000000000000  -0.000271829322403   0.114225857026213 0
force Bi   0.000000000000000  -0.000271829322401   0.114225857026441 0
force Bi   0.000000000000000  -0.007226518683136   0.288026774010571 0
force Bi   0.000000000000000  -0.007226518683136   0.288026774010570 0
force Bi   0.000000000000000   0.007832068045079  -0.282186677088056 0
force Bi   0.000000000000000   0.007832068045079  -0.282186677088511 0
force Bi   0.000000000000000  -0.017534786930816   0.071145635101454 0
force Bi   0.000000000000000  -0.017534786930816   0.071145635101454 0
force Bi   0.000000000000000   0.017504363875377  -0.065981715546211 0
force Bi   0.000000000000000   0.017504363875362  -0.065981715546241 0
force Bi   0.000000000000000   0.035270829310320  -0.210342098238126 0
force Bi   0.000000000000000   0.035270829310324  -0.210342098238126 0
force Bi   0.000000000000000  -0.034632658276514   0.215824015926048 0
force Bi   0.000000000000000  -0.034632658276514   0.215824015926048 0
force Bi   0.000000000000000   0.043097544710670   0.140891448569562 0
force Bi   0.000000000000000   0.043097544710670   0.140891448569562 0
force Bi   0.000000000000000  -0.043422933203679  -0.141243279285639 0
force Bi   0.000000000000000  -0.043422933203665  -0.141243279285639 0
force Bi   0.000000000000000   0.025515572348721   0.340278289851007 0
force Bi   0.000000000000000   0.025515572348720   0.340278289851007 0
force Bi  -0.000000000000000  -0.024974200237887  -0.340207361656807 0
force Bi   0.000000000000000  -0.024974200237887  -0.340207361656807 0
force I   0.000000000000000  -0.063394728115963  -0.432621310818091 0
force I   0.000000000000000  -0.063394728115963  -0.432621310818091 0
force I  -0.000000000000000   0.063033898975341   0.425412427140285 0
force I   0.000000000000000   0.063033898975341   0.425412427140285 0
force I   0.000000000000000   0.026186924355825  -0.387054944135841 0
force I   0.000000000000000   0.026186924355853  -0.387054944135842 0
force I  -0.000000000000000  -0.025894326007299   0.382652869717392 0
force I   0.000000000000000  -0.025894326007299   0.382652869717392 0

# Energy components:
   A_diel =       -0.5346978752209969
   Eewald =    28956.3125818214502942
       EH =    31024.4059990706045937
     Eloc =   -63347.9519482508185320
      Enl =      847.6202987997809259
      Exc =    -1355.3759732739986248
 Exc_core =      917.1579808600694150
       KE =      278.7217904197408416
  MuShift =        0.0483928431248690
-------------------------------------
     Etot =    -2679.5955755852664879
       TS =        0.0655096274918660
-------------------------------------
        F =    -2679.6610852127582802
      muN =     -144.9168105483424540
-------------------------------------
        G =    -2534.7442746644160252

IonicMinimize: Iter:   0  G: -2534.744274664416025  |grad|_K:  0.000e+00  t[s]:    692.27
IonicMinimize: Converged (|grad|_K<1.000000e-04).

#--- Lowdin population analysis ---
# oxidation-state Bi +0.380 +0.380 +0.379 +0.379 -0.040 -0.040 -0.040 -0.040 +0.351 +0.351 +0.351 +0.351 +0.010 +0.010 +0.010 +0.010 +0.222 +0.222 +0.222 +0.222 +0.004 +0.004 +0.004 +0.004 +0.079 +0.079 +0.079 +0.079 -0.050 -0.050 -0.049 -0.049 +0.623 +0.623 +0.623 +0.623
# oxidation-state I -0.051 -0.051 -0.051 -0.051 -0.184 -0.184 -0.184 -0.184


Dumping 'NbTe2.fillings' ... done
Dumping 'NbTe2.wfns' ... done
Dumping 'NbTe2.fluidState' ... done
Dumping 'NbTe2.eigenvals' ... done
End date and time: Sat Jul 11 08:15:53 2020  (Duration: 0-0:11:45.15)
Done!
