
*************** JDFTx 1.5.0  ***************

Start date and time: Tue Jul  7 04:32:25 2020
Executable jdftx_gpu with command-line: -i Neutral.in -o Neutral.out
Running on hosts (process indices):  amax (0)
Divided in process groups (process indices):  0 (0)
gpuInit: Found compatible cuda device 0 'Tesla K80'
gpuInit: Selected device 0
Resource initialization completed at t[s]:      6.80
Run totals: 1 processes, 24 threads, 1 GPUs


Input parsed successfully to the following command list (including defaults):

basis kpoint-dependent
cache-projectors no
coords-type Lattice
core-overlap-check none
coulomb-interaction Slab 001
coulomb-truncation-embed 0 0 0.5
davidson-band-ratio 1.1
dump End State
dump-name NbTe2.$VAR
elec-cutoff 20 100
elec-eigen-algo Davidson
elec-ex-corr gga-PBE
elec-smearing Gauss 0.0073499
electronic-minimize  \
	dirUpdateScheme      FletcherReeves \
	linminMethod         DirUpdateRecommended \
	nIterations          100 \
	history              15 \
	knormThreshold       0 \
	energyDiffThreshold  1e-08 \
	nEnergyDiff          2 \
	alphaTstart          1 \
	alphaTmin            1e-10 \
	updateTestStepSize   yes \
	alphaTreduceFactor   0.1 \
	alphaTincreaseFactor 3 \
	nAlphaAdjustMax      3 \
	wolfeEnergy          0.0001 \
	wolfeGradient        0.9 \
	fdTest               no
electronic-scf  \
	nIterations	500 \
	energyDiffThreshold	1e-08 \
	residualThreshold	1e-07 \
	mixFraction	0.5 \
	qMetric	0.8 \
	history	10 \
	nEigSteps	2 \
	eigDiffThreshold	1e-08 \
	mixedVariable	Density \
	qKerker	0.8 \
	qKappa	-1 \
	verbose	no \
	mixFractionMag	1.5
exchange-regularization WignerSeitzTruncated
fluid LinearPCM 298.000000 1.013250
fluid-anion F- 1 MeanFieldLJ \
	epsBulk 1 \
	pMol 0 \
	epsInf 1 \
	Pvap 0 \
	sigmaBulk 0 \
	Rvdw 2.24877 \
	Res 0 \
	tauNuc 343133
fluid-cation Na+ 1 MeanFieldLJ \
	epsBulk 1 \
	pMol 0 \
	epsInf 1 \
	Pvap 0 \
	sigmaBulk 0 \
	Rvdw 2.19208 \
	Res 0 \
	tauNuc 343133
fluid-ex-corr lda-TF lda-PZ
fluid-gummel-loop 10 1.000000e-05
fluid-minimize  \
	dirUpdateScheme      PolakRibiere \
	linminMethod         DirUpdateRecommended \
	nIterations          400 \
	history              15 \
	knormThreshold       1e-11 \
	energyDiffThreshold  0 \
	nEnergyDiff          2 \
	alphaTstart          1 \
	alphaTmin            1e-10 \
	updateTestStepSize   yes \
	alphaTreduceFactor   0.1 \
	alphaTincreaseFactor 3 \
	nAlphaAdjustMax      6 \
	wolfeEnergy          0.0001 \
	wolfeGradient        0.9 \
	fdTest               no
fluid-solvent H2O 55.338 ScalarEOS \
	epsBulk 78.4 \
	pMol 0.92466 \
	epsInf 1.77 \
	Pvap 1.06736e-10 \
	sigmaBulk 4.62e-05 \
	Rvdw 2.61727 \
	Res 1.42 \
	tauNuc 343133 \
	poleEl 15 7 1
forces-output-coords Positions
initial-state NbTe2.$VAR
ion Bi   0.000000000000000   0.950811199995299   0.599917231134753 0
ion Bi   0.500000000000000   0.943833559572336   0.600243379435410 0
ion Bi   0.000000000000000   0.066477825121473   0.401478651613225 0
ion Bi   0.500000000000000   0.064468799784486   0.403161647818031 0
ion Bi   0.249544355230703   0.800606788784997   0.358841476677280 0
ion Bi   0.750455644769297   0.800606788784997   0.358841476677280 0
ion Bi   0.254676563479866   0.341889323693043   0.438409804079917 0
ion Bi   0.745323436520134   0.341889323693043   0.438409804079917 0
ion Bi   0.000000000000000   0.177016485012287   0.572173618090924 0
ion Bi   0.500000000000000   0.166430721271229   0.571531665515973 0
ion Bi   0.000000000000000   0.624603169343086   0.489128516403632 0
ion Bi   0.500000000000000   0.620494791039581   0.488535956771267 0
ion Bi   0.000000000000000   0.842879441535665   0.430695970810603 0
ion Bi   0.500000000000000   0.840569850680421   0.430767287999651 0
ion Bi   0.000000000000000   0.526860322730652   0.312537384379226 0
ion Bi   0.500000000000000   0.529626043288920   0.312269249029064 0
ion Bi   0.247590593608177   0.119798116961669   0.471835097725017 0
ion Bi   0.752409406391824   0.119798116961669   0.471835097725017 0
ion Bi   0.250648463032024   0.669271054733876   0.559214377099631 0
ion Bi   0.749351536967975   0.669271054733876   0.559214377099631 0
ion Bi   0.000000000000000   0.392860710409710   0.507929457609111 0
ion Bi   0.500000000000000   0.391259229335446   0.509500808937700 0
ion Bi   0.249000344553671   0.893882360755171   0.530782890907433 0
ion Bi   0.750999655446330   0.893882360755171   0.530782890907433 0
ion Bi   0.258952685828874   0.210433961542309   0.646712082104776 0
ion Bi   0.741047314171126   0.210433961542309   0.646712082104776 0
ion Bi   0.225185405938936   0.423476925560564   0.607672134099761 0
ion Bi   0.774814594061064   0.423476925560564   0.607672134099761 0
ion Bi   0.250309752466177   0.577126659486277   0.384139919952052 0
ion Bi   0.749690247533823   0.577126659486277   0.384139919952052 0
ion Bi   0.000000000000000   0.482812002099492   0.684954583411206 0
ion I   0.000000000000000   0.280744538029175   0.736090034554661 0
ion I   0.500000000000000   0.241712885501255   0.730149123431766 0
ion I   0.000000000000000   0.736337234528485   0.266610158421884 0
ion I   0.500000000000000   0.737756640383070   0.266611810556820 0
ion I   0.000000000000000   0.298045538063411   0.340358947720374 0
ion I   0.500000000000000   0.299689709168692   0.343107607851231 0
ion I   0.000000000000000   0.715189508198123   0.658992588014831 0
ion I   0.500000000000000   0.518948741871891   0.659201034196907 0
ion-species GBRV/$ID_pbe.uspp
ion-width Ecut
ionic-minimize  \
	dirUpdateScheme      L-BFGS \
	linminMethod         DirUpdateRecommended \
	nIterations          0 \
	history              15 \
	knormThreshold       0.0001 \
	energyDiffThreshold  1e-06 \
	nEnergyDiff          2 \
	alphaTstart          1 \
	alphaTmin            1e-10 \
	updateTestStepSize   yes \
	alphaTreduceFactor   0.1 \
	alphaTincreaseFactor 3 \
	nAlphaAdjustMax      3 \
	wolfeEnergy          0.0001 \
	wolfeGradient        0.9 \
	fdTest               no
kpoint   0.000000000000   0.000000000000   0.000000000000  1.00000000000000
kpoint-folding 4 3 1 
latt-move-scale 1 1 1
latt-scale 1 1 1 
lattice Triclinic 16.7347 25.0422 53.813 90 90 90
lattice-minimize  \
	dirUpdateScheme      L-BFGS \
	linminMethod         DirUpdateRecommended \
	nIterations          0 \
	history              15 \
	knormThreshold       0 \
	energyDiffThreshold  1e-06 \
	nEnergyDiff          2 \
	alphaTstart          1 \
	alphaTmin            1e-10 \
	updateTestStepSize   yes \
	alphaTreduceFactor   0.1 \
	alphaTincreaseFactor 3 \
	nAlphaAdjustMax      3 \
	wolfeEnergy          0.0001 \
	wolfeGradient        0.9 \
	fdTest               no
lcao-params -1 1e-06 0.0073499
pcm-variant CANDLE
spintype no-spin
subspace-rotation-factor 1 yes
symmetries automatic
symmetry-threshold 0.0001



---------- Setting up symmetries ----------

Found 8 point-group symmetries of the bravais lattice
Found 2 space-group symmetries with basis
Applied RMS atom displacement 6.3166e-16 bohrs to make symmetries exact.

---------- Initializing the Grid ----------
R = 
[    16.7347          0          0  ]
[          0    25.0422          0  ]
[          0          0     53.813  ]
unit cell volume = 22551.6
G =
[   0.375458          0          0  ]
[          0   0.250904          0  ]
[          0          0    0.11676  ]
Minimum fftbox size, Smin = [  76  116  244  ]
Chosen fftbox size, S = [  80  120  250  ]

---------- Initializing tighter grid for wavefunction operations ----------
R = 
[    16.7347          0          0  ]
[          0    25.0422          0  ]
[          0          0     53.813  ]
unit cell volume = 22551.6
G =
[   0.375458          0          0  ]
[          0   0.250904          0  ]
[          0          0    0.11676  ]
Minimum fftbox size, Smin = [  68  104  220  ]
Chosen fftbox size, S = [  70  108  224  ]

---------- Exchange Correlation functional ----------
Initalized PBE GGA exchange.
Initalized PBE GGA correlation.

---------- Setting up pseudopotentials ----------
Width of ionic core gaussian charges (only for fluid interactions / plotting) set to 0.397384

Reading pseudopotential file '/home/guoxy/vasp/jdftx-1.5.0/build/pseudopotentials/GBRV/bi_pbe.uspp':
  Title: Bi.  Created by USPP 7.3.6 on 14-9-2013
  Reference state energy: -92.204004.  15 valence electrons in orbitals:
    |520>  occupation: 10  eigenvalue: -1.293263
    |600>  occupation: 2  eigenvalue: -0.812524
    |610>  occupation: 2  eigenvalue: -0.420386
  lMax: 2  lLocal: 3  QijEcut: 5
  6 projectors sampled on a log grid with 747 points:
    l: 0  eig: -0.812524  rCut: 2.5
    l: 0  eig: 0.500000  rCut: 2.5
    l: 1  eig: -0.420386  rCut: 2.5
    l: 1  eig: 1.000000  rCut: 2.5
    l: 2  eig: -1.293263  rCut: 2.3
    l: 2  eig: -0.500000  rCut: 2.3
  Partial core density with radius 1
  Transforming core density to a uniform radial grid of dG=0.02 with 1295 points.
  Transforming local potential to a uniform radial grid of dG=0.02 with 1295 points.
  Transforming nonlocal projectors to a uniform radial grid of dG=0.02 with 432 points.
  Transforming density augmentations to a uniform radial grid of dG=0.02 with 1295 points.
  Transforming atomic orbitals to a uniform radial grid of dG=0.02 with 432 points.
  Core radius for overlap checks: 2.50 bohrs.

Reading pseudopotential file '/home/guoxy/vasp/jdftx-1.5.0/build/pseudopotentials/GBRV/i_pbe.uspp':
  Title: I.  Created by USPP 7.3.6 on 14-9-2013
  Reference state energy: -32.770235.  7 valence electrons in orbitals:
    |500>  occupation: 2  eigenvalue: -0.639712
    |510>  occupation: 5  eigenvalue: -0.260406
  lMax: 2  lLocal: 3  QijEcut: 5
  6 projectors sampled on a log grid with 725 points:
    l: 0  eig: -0.639710  rCut: 1.9
    l: 0  eig: 0.000000  rCut: 1.9
    l: 1  eig: -0.260404  rCut: 2
    l: 1  eig: 0.000000  rCut: 2
    l: 2  eig: -0.500000  rCut: 2.45
    l: 2  eig: 0.500000  rCut: 2.45
  Partial core density with radius 1.3
  Transforming core density to a uniform radial grid of dG=0.02 with 1295 points.
  Transforming local potential to a uniform radial grid of dG=0.02 with 1295 points.
  Transforming nonlocal projectors to a uniform radial grid of dG=0.02 with 432 points.
  Transforming density augmentations to a uniform radial grid of dG=0.02 with 1295 points.
  Transforming atomic orbitals to a uniform radial grid of dG=0.02 with 432 points.
  Core radius for overlap checks: 2.45 bohrs.

Initialized 2 species with 39 total atoms.

Folded 1 k-points by 4x3x1 to 12 k-points.

---------- Setting up k-points, bands, fillings ----------
Adding inversion symmetry to k-mesh for non-inversion-symmetric unit cell.
Reduced to 6 k-points under symmetry. 
Computing the number of bands and number of electrons
Calculating initial fillings.
nElectrons: 521.000000   nBands: 311   nStates: 6

----- Setting up reduced wavefunction bases (one per k-point) -----
average nbasis = 96340.417 , ideal nbasis = 96342.186

---------- Setting up coulomb interaction ----------
Fluid mode embedding: using embedded box, but periodic Coulomb kernel.
(Fluid response is responsible for (approximate) separation between periodic images.)
Setting up double-sized grid for truncated Coulomb potentials:
R = 
[    16.7347          0          0  ]
[          0    25.0422          0  ]
[          0          0    107.626  ]
unit cell volume = 45103.2
G =
[   0.375458          0          0  ]
[          0   0.250904          0  ]
[          0          0  0.0583798  ]
Chosen fftbox size, S = [  80  120  500  ]
Integer grid location selected as the embedding center:
   Grid: [  0  0  125  ]
   Lattice: [  0  0  0.5  ]
   Cartesian: [  0  0  26.9065  ]
Constructing Wigner-Seitz cell: 6 faces (6 quadrilaterals, 0 hexagons)
Range-separation parameter for embedded mesh potentials due to point charges: 0.585307 bohrs.

Initializing van der Waals corrections
	NOTE: vdW corrections apply only for interactions with fluid.
	Bi:  C6:  893.28 Eh-a0^6  R0: 3.555 a0 (WARNING: beyond Grimme's data set)
	 I:  C6:  546.38 Eh-a0^6  R0: 3.575 a0

---------- Setting up ewald sum ----------
Optimum gaussian width for ewald sums = 7.711434 bohr.
Real space sum over 585 unit cells with max indices [  6  4  2  ]
Reciprocal space sum over 6721 terms with max indices [  5  6  23  ]

---------- Allocating electronic variables ----------
Initializing wave functions:  linear combination of atomic orbitals
Bi pseudo-atom occupations:   s ( 2 )  p ( 3 )  d ( 10 )
I pseudo-atom occupations:   s ( 2 )  p ( 5 )
	FillingsUpdate:  mu: -0.178248439  nElectrons: 521.000000
LCAOMinimize: Iter:   0  F: -2319.7912389102511952  |grad|_K:  2.828e-03  alpha:  1.000e+00
	FillingsUpdate:  mu: -0.160913201  nElectrons: 521.000000
LCAOMinimize: Iter:   1  F: -2319.9175504728905253  |grad|_K:  2.332e-03  alpha:  2.946e-02  linmin: -2.455e-01  cgtest:  9.747e-01  t[s]:    110.12
LCAOMinimize: Encountered beta<0, resetting CG.
LCAOMinimize: 	Predicted alpha/alphaT>3.000000, increasing alphaT to 8.839000e-02.
	FillingsUpdate:  mu: -0.062906856  nElectrons: 521.000000
LCAOMinimize: Iter:   2  F: -2320.2094636313586307  |grad|_K:  1.546e-03  alpha:  2.027e-01  linmin:  7.143e-02  cgtest: -4.785e-01  t[s]:    161.01
	FillingsUpdate:  mu: -0.049379963  nElectrons: 521.000000
LCAOMinimize: Iter:   3  F: -2320.2353260759641671  |grad|_K:  1.580e-03  alpha:  3.529e-02  linmin: -6.230e-02  cgtest:  9.809e-01  t[s]:    200.57
LCAOMinimize: 	Predicted alpha/alphaT>3.000000, increasing alphaT to 1.058798e-01.
	FillingsUpdate:  mu: -0.096867006  nElectrons: 521.000000
LCAOMinimize: Iter:   4  F: -2320.3450805552829479  |grad|_K:  6.860e-04  alpha:  1.507e-01  linmin:  2.372e-02  cgtest: -1.473e-01  t[s]:    251.23
	FillingsUpdate:  mu: -0.082431317  nElectrons: 521.000000
LCAOMinimize: Iter:   5  F: -2320.3674414933338994  |grad|_K:  7.277e-04  alpha:  1.786e-01  linmin:  1.967e-02  cgtest: -6.890e-02  t[s]:    291.29
	FillingsUpdate:  mu: -0.081905624  nElectrons: 521.000000
LCAOMinimize: Iter:   6  F: -2320.3759743285336299  |grad|_K:  3.696e-04  alpha:  4.809e-02  linmin: -5.749e-02  cgtest:  8.974e-01  t[s]:    330.57
LCAOMinimize: Encountered beta<0, resetting CG.
	FillingsUpdate:  mu: -0.084236841  nElectrons: 521.000000
LCAOMinimize: Iter:   7  F: -2320.3780873736395733  |grad|_K:  1.253e-04  alpha:  5.294e-02  linmin: -2.220e-03  cgtest:  1.753e-02  t[s]:    370.69
LCAOMinimize: 	Predicted alpha/alphaT>3.000000, increasing alphaT to 1.588311e-01.
	FillingsUpdate:  mu: -0.082865019  nElectrons: 521.000000
LCAOMinimize: Iter:   8  F: -2320.3789817230745030  |grad|_K:  5.426e-05  alpha:  1.945e-01  linmin:  1.491e-03  cgtest: -5.903e-02  t[s]:    422.20
	FillingsUpdate:  mu: -0.084366095  nElectrons: 521.000000
LCAOMinimize: Iter:   9  F: -2320.3791382278991478  |grad|_K:  3.593e-05  alpha:  1.827e-01  linmin: -1.031e-03  cgtest: -5.622e-03  t[s]:    462.46
	FillingsUpdate:  mu: -0.084305687  nElectrons: 521.000000
LCAOMinimize: Iter:  10  F: -2320.3791786774254433  |grad|_K:  3.014e-05  alpha:  1.067e-01  linmin: -1.024e-04  cgtest: -2.403e-03  t[s]:    503.01
	FillingsUpdate:  mu: -0.083524431  nElectrons: 521.000000
LCAOMinimize: Iter:  11  F: -2320.3792191615748379  |grad|_K:  1.635e-05  alpha:  1.527e-01  linmin:  6.775e-04  cgtest:  7.189e-03  t[s]:    543.08
	FillingsUpdate:  mu: -0.083708803  nElectrons: 521.000000
LCAOMinimize: Iter:  12  F: -2320.3792370383425805  |grad|_K:  7.296e-06  alpha:  2.297e-01  linmin:  2.412e-04  cgtest:  1.585e-02  t[s]:    582.57
	FillingsUpdate:  mu: -0.083706277  nElectrons: 521.000000
LCAOMinimize: Iter:  13  F: -2320.3792393970093144  |grad|_K:  6.656e-06  alpha:  1.519e-01  linmin:  1.307e-06  cgtest:  3.970e-04  t[s]:    622.92
	FillingsUpdate:  mu: -0.083712170  nElectrons: 521.000000
LCAOMinimize: Iter:  14  F: -2320.3792404949244883  |grad|_K:  2.701e-06  alpha:  8.487e-02  linmin:  4.349e-06  cgtest: -1.426e-03  t[s]:    663.02
	FillingsUpdate:  mu: -0.083729768  nElectrons: 521.000000
LCAOMinimize: Iter:  15  F: -2320.3792410058786118  |grad|_K:  1.223e-06  alpha:  2.399e-01  linmin:  3.836e-05  cgtest: -7.041e-04  t[s]:    702.28
	FillingsUpdate:  mu: -0.083752955  nElectrons: 521.000000
LCAOMinimize: Iter:  16  F: -2320.3792411113040544  |grad|_K:  1.375e-06  alpha:  2.413e-01  linmin: -2.650e-05  cgtest:  2.037e-04  t[s]:    742.24
LCAOMinimize: Converged (|Delta F|<1.000000e-06 for 2 iters).
----- createFluidSolver() ----- (Fluid-side solver setup)
   Initializing fluid molecule 'H2O'
     Initializing site 'O'
       Electron density: proportional to exp(-r/0.36935)*erfc((r-0.51523)/0.36823) with norm 6.826
       Charge density: gaussian nuclear width 0.478731 with net site charge 0.826
       Polarizability: cuspless exponential with width 0.32 and norm 3.73
       Hard sphere radius: 2.57003 bohrs
       Positions in reference frame:
         [ +0.000000 +0.000000 +0.000000 ]
     Initializing site 'H'
       Electron density: proportional to exp(-r/0.34641)*erfc((r-0)/0.390882) with norm 0.587
       Charge density: gaussian nuclear width 0.377945 with net site charge -0.413
       Polarizability: cuspless exponential with width 0.39 and norm 3.3
       Positions in reference frame:
         [ +0.000000 -1.441945 +1.122523 ]
         [ +0.000000 +1.441945 +1.122523 ]
     Net charge: 0   dipole magnitude: 0.927204
     Initializing spherical shell mfKernel with radius 2.61727 Bohr
     deltaS corrections:
       site 'O': -7.54299
       site 'H': -6.83917
   Initializing fluid molecule 'Na+'
     Initializing site 'Na'
       Electron density: proportional to exp(-r/0.19682)*erfc((r-0.71491)/0.41314) with norm 8.1383
       Charge density: gaussian nuclear width 0.365347 with net site charge -1
       Hard sphere radius: 1.86327 bohrs
       Positions in reference frame:
         [ +0.000000 +0.000000 +0.000000 ]
     Net charge: -1   dipole magnitude: 0
     Initializing gaussian mfKernel with width: 1.55004 Bohr
     deltaS corrections:
       site 'Na': -22.3555
   Initializing fluid molecule 'F-'
     Initializing site 'F'
       Electron density: proportional to exp(-r/0.38886)*erfc((r-0)/0.438782) with norm 8
       Charge density: gaussian nuclear width 0.374796 with net site charge 1
       Hard sphere radius: 2.39995 bohrs
       Positions in reference frame:
         [ +0.000000 +0.000000 +0.000000 ]
     Net charge: 1   dipole magnitude: 0
     Initializing gaussian mfKernel with width: 1.59012 Bohr
     deltaS corrections:
       site 'F': -9.04335

Correction to mu due to finite nuclear width = -0.0114612
   Cavity determined by nc: 0.00142 and sigma: 0.707107
   Nonlocal vdW cavity from gaussian model electron density with norm = 8 and sigma = 0.993594 bohr
   Charge asymmetry in cavity with sensitivity pCavity = 36.5 e-bohr/Eh
   Electrostatic cavity expanded by eta = 1.46 bohrs
   Weighted density cavitation model constrained by Nbulk: 0.0049383 bohr^-3, Pvap: 3.14029 kPa, Rvdw: 2.61727 bohr and sigmaBulk: 4.62e-05 Eh/bohr^2 at T: 298 K.
   Weighted density dispersion model using vdW pair potentials with single solvent site with sqrtC6eff: 0.77 SI.


---- Citations for features of the code used in this run ----

   Software package:
      R. Sundararaman, K. Letchworth-Weaver, K.A. Schwarz, D. Gunceler, Y. Ozhabes and T.A. Arias, 'JDFTx: software for joint density-functional theory', SoftwareX 6, 278 (2017)

   gga-PBE exchange-correlation functional:
      J.P. Perdew, K. Burke and M. Ernzerhof, Phys. Rev. Lett. 77, 3865 (1996)

   Pseudopotentials:
      KF Garrity, JW Bennett, KM Rabe and D Vanderbilt, Comput. Mater. Sci. 81, 446 (2014)

   Truncated Coulomb potentials:
      R. Sundararaman and T.A. Arias, Phys. Rev. B 87, 165122 (2013)

   Van der Waals correction pair-potentials:
      S. Grimme, J. Comput. Chem. 27, 1787 (2006)

   Charge-asymmetric nonlocally-determined local-electric (CANDLE) solvation model:
      R. Sundararaman and W.A. Goddard III, J. Chem. Phys. 142, 064107 (2015)

This list may not be complete. Please suggest additional citations or
report any other bugs at https://github.com/shankar1729/jdftx/issues

Initialization completed successfully at t[s]:    751.95

Fluid solver invoked on fresh (partially random / LCAO) wavefunctions
Running a vacuum solve first:

-------- Initial electronic minimization -----------
Will mix electronic density at each iteration.
	FillingsUpdate:  mu: -0.083752955  nElectrons: 521.000000
	FillingsUpdate:  mu: -0.091745594  nElectrons: 521.000000
SCF: Cycle:  0   F: -2320.876415382774667   dF: -4.972e-01   |Residual|: 3.128e-01   |deigs|: 9.723e-03  t[s]:    886.28
	FillingsUpdate:  mu: -0.093770809  nElectrons: 521.000000
SCF: Cycle:  1   F: -2321.086700565263527   dF: -2.103e-01   |Residual|: 1.402e-01   |deigs|: 1.226e-02  t[s]:    996.10
	FillingsUpdate:  mu: -0.094563807  nElectrons: 521.000000
SCF: Cycle:  2   F: -2321.137436446556421   dF: -5.074e-02   |Residual|: 4.900e-02   |deigs|: 8.244e-03  t[s]:   1104.05
	FillingsUpdate:  mu: -0.093485015  nElectrons: 521.000000
SCF: Cycle:  3   F: -2321.140074342514708   dF: -2.638e-03   |Residual|: 1.415e-02   |deigs|: 1.079e-03  t[s]:   1218.10
	FillingsUpdate:  mu: -0.092492390  nElectrons: 521.000000
SCF: Cycle:  4   F: -2321.141540463572710   dF: -1.466e-03   |Residual|: 6.462e-03   |deigs|: 7.237e-04  t[s]:   1326.44
	FillingsUpdate:  mu: -0.091035360  nElectrons: 521.000000
SCF: Cycle:  5   F: -2321.142015491630445   dF: -4.750e-04   |Residual|: 2.925e-03   |deigs|: 1.469e-03  t[s]:   1435.34
	FillingsUpdate:  mu: -0.089943559  nElectrons: 521.000000
SCF: Cycle:  6   F: -2321.142240318220502   dF: -2.248e-04   |Residual|: 2.283e-03   |deigs|: 1.132e-03  t[s]:   1542.42
	FillingsUpdate:  mu: -0.088487283  nElectrons: 521.000000
SCF: Cycle:  7   F: -2321.142365038161188   dF: -1.247e-04   |Residual|: 1.539e-03   |deigs|: 1.472e-03  t[s]:   1651.62
	FillingsUpdate:  mu: -0.087389954  nElectrons: 521.000000
SCF: Cycle:  8   F: -2321.142397047167378   dF: -3.201e-05   |Residual|: 9.706e-04   |deigs|: 1.111e-03  t[s]:   1758.87
	FillingsUpdate:  mu: -0.086467708  nElectrons: 521.000000
SCF: Cycle:  9   F: -2321.142409542140285   dF: -1.249e-05   |Residual|: 7.721e-04   |deigs|: 9.276e-04  t[s]:   1865.45
	FillingsUpdate:  mu: -0.085547448  nElectrons: 521.000000
SCF: Cycle: 10   F: -2321.142412835658888   dF: -3.294e-06   |Residual|: 5.879e-04   |deigs|: 9.322e-04  t[s]:   1973.13
	FillingsUpdate:  mu: -0.084906841  nElectrons: 521.000000
SCF: Cycle: 11   F: -2321.142416662048163   dF: -3.826e-06   |Residual|: 4.400e-04   |deigs|: 6.451e-04  t[s]:   2080.76
	FillingsUpdate:  mu: -0.084295744  nElectrons: 521.000000
SCF: Cycle: 12   F: -2321.142420699409286   dF: -4.037e-06   |Residual|: 3.315e-04   |deigs|: 6.132e-04  t[s]:   2188.90
	FillingsUpdate:  mu: -0.083842220  nElectrons: 521.000000
SCF: Cycle: 13   F: -2321.142422458675355   dF: -1.759e-06   |Residual|: 2.362e-04   |deigs|: 4.515e-04  t[s]:   2296.27
	FillingsUpdate:  mu: -0.083560039  nElectrons: 521.000000
SCF: Cycle: 14   F: -2321.142423064280592   dF: -6.056e-07   |Residual|: 1.435e-04   |deigs|: 2.812e-04  t[s]:   2412.20
	FillingsUpdate:  mu: -0.083433697  nElectrons: 521.000000
SCF: Cycle: 15   F: -2321.142423241311462   dF: -1.770e-07   |Residual|: 8.211e-05   |deigs|: 1.276e-04  t[s]:   2520.58
	FillingsUpdate:  mu: -0.083382955  nElectrons: 521.000000
SCF: Cycle: 16   F: -2321.142423327089091   dF: -8.578e-08   |Residual|: 5.043e-05   |deigs|: 5.153e-05  t[s]:   2629.85
	FillingsUpdate:  mu: -0.083351987  nElectrons: 521.000000
SCF: Cycle: 17   F: -2321.142423381047593   dF: -5.396e-08   |Residual|: 2.826e-05   |deigs|: 3.044e-05  t[s]:   2737.43
	FillingsUpdate:  mu: -0.083345744  nElectrons: 521.000000
SCF: Cycle: 18   F: -2321.142423409164167   dF: -2.812e-08   |Residual|: 2.005e-05   |deigs|: 6.114e-06  t[s]:   2843.83
	FillingsUpdate:  mu: -0.083341292  nElectrons: 521.000000
SCF: Cycle: 19   F: -2321.142423427335871   dF: -1.817e-08   |Residual|: 1.177e-05   |deigs|: 5.180e-06  t[s]:   2948.20
	FillingsUpdate:  mu: -0.083339275  nElectrons: 521.000000
SCF: Cycle: 20   F: -2321.142423435911951   dF: -8.576e-09   |Residual|: 7.680e-06   |deigs|: 2.570e-06  t[s]:   3052.98
	FillingsUpdate:  mu: -0.083339518  nElectrons: 521.000000
SCF: Cycle: 21   F: -2321.142423440970106   dF: -5.058e-09   |Residual|: 4.540e-06   |deigs|: 1.628e-06  t[s]:   3151.03
SCF: Converged (|Delta E|<1.000000e-08 for 2 iters).

Vacuum energy after initial minimize, F = -2321.142423440970106

	FillingsUpdate:  mu: -0.083339518  nElectrons: 521.000000
	Linear fluid (dielectric constant: 78.4, screening length: 5.74355 Bohr) occupying 0.717814 of unit cell:	Completed after 27 iterations at t[s]:   3165.90

-------- Electronic minimization -----------
Will mix electronic density at each iteration.
	FillingsUpdate:  mu: -0.083339518  nElectrons: 521.000000
	Linear fluid (dielectric constant: 78.4, screening length: 5.74355 Bohr) occupying 0.717814 of unit cell:	Completed after 0 iterations at t[s]:   3178.79
	FillingsUpdate:  mu: -0.170137259  nElectrons: 521.000000
	Linear fluid (dielectric constant: 78.4, screening length: 5.74355 Bohr) occupying 0.718516 of unit cell:	Completed after 24 iterations at t[s]:   3306.05
SCF: Cycle:  0   F: -2321.136193671042747   dF: +3.995e-03   |Residual|: 2.705e-02   |deigs|: 1.091e-04  t[s]:   3307.81
	Linear fluid (dielectric constant: 78.4, screening length: 5.74355 Bohr) occupying 0.718181 of unit cell:	Completed after 23 iterations at t[s]:   3311.04
	FillingsUpdate:  mu: -0.170465579  nElectrons: 521.000000
	Linear fluid (dielectric constant: 78.4, screening length: 5.74355 Bohr) occupying 0.718384 of unit cell:	Completed after 21 iterations at t[s]:   3420.01
SCF: Cycle:  1   F: -2321.141982345364340   dF: -5.789e-03   |Residual|: 1.141e-02   |deigs|: 7.871e-04  t[s]:   3421.81
	Linear fluid (dielectric constant: 78.4, screening length: 5.74355 Bohr) occupying 0.718557 of unit cell:	Completed after 20 iterations at t[s]:   3424.74
	FillingsUpdate:  mu: -0.170665992  nElectrons: 521.000000
	Linear fluid (dielectric constant: 78.4, screening length: 5.74355 Bohr) occupying 0.718367 of unit cell:	Completed after 18 iterations at t[s]:   3536.39
SCF: Cycle:  2   F: -2321.143206349126558   dF: -1.224e-03   |Residual|: 6.388e-03   |deigs|: 4.111e-04  t[s]:   3538.18
	Linear fluid (dielectric constant: 78.4, screening length: 5.74355 Bohr) occupying 0.718852 of unit cell:	Completed after 18 iterations at t[s]:   3540.72
	FillingsUpdate:  mu: -0.170728735  nElectrons: 521.000000
	Linear fluid (dielectric constant: 78.4, screening length: 5.74355 Bohr) occupying 0.718422 of unit cell:	Completed after 17 iterations at t[s]:   3650.30
SCF: Cycle:  3   F: -2321.143364343454323   dF: -1.580e-04   |Residual|: 3.319e-03   |deigs|: 1.031e-04  t[s]:   3652.04
	Linear fluid (dielectric constant: 78.4, screening length: 5.74355 Bohr) occupying 0.718976 of unit cell:	Completed after 17 iterations at t[s]:   3654.56
	FillingsUpdate:  mu: -0.170694392  nElectrons: 521.000000
	Linear fluid (dielectric constant: 78.4, screening length: 5.74355 Bohr) occupying 0.718436 of unit cell:	Completed after 15 iterations at t[s]:   3765.48
SCF: Cycle:  4   F: -2321.143428570216201   dF: -6.423e-05   |Residual|: 2.183e-03   |deigs|: 6.440e-05  t[s]:   3767.15
	Linear fluid (dielectric constant: 78.4, screening length: 5.74355 Bohr) occupying 0.718933 of unit cell:	Completed after 15 iterations at t[s]:   3769.50
	FillingsUpdate:  mu: -0.170643940  nElectrons: 521.000000
	Linear fluid (dielectric constant: 78.4, screening length: 5.74355 Bohr) occupying 0.718426 of unit cell:	Completed after 14 iterations at t[s]:   3878.14
SCF: Cycle:  5   F: -2321.143452142459410   dF: -2.357e-05   |Residual|: 1.544e-03   |deigs|: 5.069e-05  t[s]:   3879.79
	Linear fluid (dielectric constant: 78.4, screening length: 5.74355 Bohr) occupying 0.718783 of unit cell:	Completed after 12 iterations at t[s]:   3881.77
	FillingsUpdate:  mu: -0.170665412  nElectrons: 521.000000
	Linear fluid (dielectric constant: 78.4, screening length: 5.74355 Bohr) occupying 0.718406 of unit cell:	Completed after 12 iterations at t[s]:   3990.46
SCF: Cycle:  6   F: -2321.143475523037523   dF: -2.338e-05   |Residual|: 1.085e-03   |deigs|: 2.812e-05  t[s]:   3992.32
	Linear fluid (dielectric constant: 78.4, screening length: 5.74355 Bohr) occupying 0.718522 of unit cell:	Completed after 11 iterations at t[s]:   3994.18
	FillingsUpdate:  mu: -0.170835121  nElectrons: 521.000000
	Linear fluid (dielectric constant: 78.4, screening length: 5.74355 Bohr) occupying 0.718387 of unit cell:	Completed after 11 iterations at t[s]:   4103.30
SCF: Cycle:  7   F: -2321.143490063655463   dF: -1.454e-05   |Residual|: 8.195e-04   |deigs|: 1.720e-04  t[s]:   4104.98
	Linear fluid (dielectric constant: 78.4, screening length: 5.74355 Bohr) occupying 0.718343 of unit cell:	Completed after 10 iterations at t[s]:   4106.78
	FillingsUpdate:  mu: -0.171009213  nElectrons: 521.000000
	Linear fluid (dielectric constant: 78.4, screening length: 5.74355 Bohr) occupying 0.718385 of unit cell:	Completed after 10 iterations at t[s]:   4215.60
SCF: Cycle:  8   F: -2321.143494868802009   dF: -4.805e-06   |Residual|: 5.733e-04   |deigs|: 1.771e-04  t[s]:   4217.37
	Linear fluid (dielectric constant: 78.4, screening length: 5.74355 Bohr) occupying 0.718245 of unit cell:	Completed after 10 iterations at t[s]:   4219.19
	FillingsUpdate:  mu: -0.171163942  nElectrons: 521.000000
	Linear fluid (dielectric constant: 78.4, screening length: 5.74355 Bohr) occupying 0.718393 of unit cell:	Completed after 9 iterations at t[s]:   4327.64
SCF: Cycle:  9   F: -2321.143495885537050   dF: -1.017e-06   |Residual|: 4.783e-04   |deigs|: 1.626e-04  t[s]:   4329.47
	Linear fluid (dielectric constant: 78.4, screening length: 5.74355 Bohr) occupying 0.718234 of unit cell:	Completed after 9 iterations at t[s]:   4331.27
	FillingsUpdate:  mu: -0.171222384  nElectrons: 521.000000
	Linear fluid (dielectric constant: 78.4, screening length: 5.74355 Bohr) occupying 0.718396 of unit cell:	Completed after 5 iterations at t[s]:   4439.86
SCF: Cycle: 10   F: -2321.143498911940242   dF: -3.026e-06   |Residual|: 3.856e-04   |deigs|: 6.452e-05  t[s]:   4441.60
	Linear fluid (dielectric constant: 78.4, screening length: 5.74355 Bohr) occupying 0.718244 of unit cell:	Completed after 3 iterations at t[s]:   4442.68
	FillingsUpdate:  mu: -0.171252630  nElectrons: 521.000000
	Linear fluid (dielectric constant: 78.4, screening length: 5.74355 Bohr) occupying 0.718399 of unit cell:	Completed after 5 iterations at t[s]:   4551.64
SCF: Cycle: 11   F: -2321.143498307139453   dF: +6.048e-07   |Residual|: 3.704e-04   |deigs|: 4.285e-05  t[s]:   4553.39
	Linear fluid (dielectric constant: 78.4, screening length: 5.74355 Bohr) occupying 0.718259 of unit cell:	Completed after 4 iterations at t[s]:   4554.59
	FillingsUpdate:  mu: -0.171188464  nElectrons: 521.000000
	Linear fluid (dielectric constant: 78.4, screening length: 5.74355 Bohr) occupying 0.718398 of unit cell:	Completed after 9 iterations at t[s]:   4665.24
SCF: Cycle: 12   F: -2321.143495476168937   dF: +2.831e-06   |Residual|: 3.776e-04   |deigs|: 7.697e-05  t[s]:   4667.15
	Linear fluid (dielectric constant: 78.4, screening length: 5.74355 Bohr) occupying 0.718281 of unit cell:	Completed after 8 iterations at t[s]:   4668.75
	FillingsUpdate:  mu: -0.171244937  nElectrons: 521.000000
	Linear fluid (dielectric constant: 78.4, screening length: 5.74355 Bohr) occupying 0.718404 of unit cell:	Completed after 4 iterations at t[s]:   4777.22
SCF: Cycle: 13   F: -2321.143499438814615   dF: -3.963e-06   |Residual|: 2.769e-04   |deigs|: 6.473e-05  t[s]:   4778.86
	Linear fluid (dielectric constant: 78.4, screening length: 5.74355 Bohr) occupying 0.718339 of unit cell:	Completed after 4 iterations at t[s]:   4780.00
	FillingsUpdate:  mu: -0.171198085  nElectrons: 521.000000
	Linear fluid (dielectric constant: 78.4, screening length: 5.74355 Bohr) occupying 0.718407 of unit cell:	Completed after 4 iterations at t[s]:   4888.68
SCF: Cycle: 14   F: -2321.143499690109820   dF: -2.513e-07   |Residual|: 2.394e-04   |deigs|: 5.059e-05  t[s]:   4890.45
	Linear fluid (dielectric constant: 78.4, screening length: 5.74355 Bohr) occupying 0.718375 of unit cell:	Completed after 3 iterations at t[s]:   4891.57
	FillingsUpdate:  mu: -0.171167139  nElectrons: 521.000000
	Linear fluid (dielectric constant: 78.4, screening length: 5.74355 Bohr) occupying 0.718410 of unit cell:	Completed after 5 iterations at t[s]:   5001.04
SCF: Cycle: 15   F: -2321.143498934536638   dF: +7.556e-07   |Residual|: 2.381e-04   |deigs|: 3.733e-05  t[s]:   5002.90
	Linear fluid (dielectric constant: 78.4, screening length: 5.74355 Bohr) occupying 0.718394 of unit cell:	Completed after 4 iterations at t[s]:   5004.12
	FillingsUpdate:  mu: -0.171144116  nElectrons: 521.000000
	Linear fluid (dielectric constant: 78.4, screening length: 5.74355 Bohr) occupying 0.718411 of unit cell:	Completed after 3 iterations at t[s]:   5113.03
SCF: Cycle: 16   F: -2321.143499764832086   dF: -8.303e-07   |Residual|: 2.098e-04   |deigs|: 2.686e-05  t[s]:   5114.84
	Linear fluid (dielectric constant: 78.4, screening length: 5.74355 Bohr) occupying 0.718409 of unit cell:	Completed after 4 iterations at t[s]:   5116.07
	FillingsUpdate:  mu: -0.171148482  nElectrons: 521.000000
	Linear fluid (dielectric constant: 78.4, screening length: 5.74355 Bohr) occupying 0.718413 of unit cell:	Completed after 2 iterations at t[s]:   5223.59
SCF: Cycle: 17   F: -2321.143500247543670   dF: -4.827e-07   |Residual|: 1.387e-04   |deigs|: 9.125e-06  t[s]:   5225.30
	Linear fluid (dielectric constant: 78.4, screening length: 5.74355 Bohr) occupying 0.718410 of unit cell:	Completed after 1 iterations at t[s]:   5226.20
	FillingsUpdate:  mu: -0.171141979  nElectrons: 521.000000
	Linear fluid (dielectric constant: 78.4, screening length: 5.74355 Bohr) occupying 0.718413 of unit cell:	Completed after 3 iterations at t[s]:   5334.84
SCF: Cycle: 18   F: -2321.143500055556160   dF: +1.920e-07   |Residual|: 1.320e-04   |deigs|: 1.316e-05  t[s]:   5336.47
	Linear fluid (dielectric constant: 78.4, screening length: 5.74355 Bohr) occupying 0.718414 of unit cell:	Completed after 1 iterations at t[s]:   5337.36
	FillingsUpdate:  mu: -0.171151420  nElectrons: 521.000000
	Linear fluid (dielectric constant: 78.4, screening length: 5.74355 Bohr) occupying 0.718414 of unit cell:	Completed after 4 iterations at t[s]:   5446.30
SCF: Cycle: 19   F: -2321.143498067430301   dF: +1.988e-06   |Residual|: 2.694e-04   |deigs|: 2.515e-05  t[s]:   5447.91
	Linear fluid (dielectric constant: 78.4, screening length: 5.74355 Bohr) occupying 0.718418 of unit cell:	Completed after 5 iterations at t[s]:   5449.17
	FillingsUpdate:  mu: -0.171102426  nElectrons: 521.000000
	Linear fluid (dielectric constant: 78.4, screening length: 5.74355 Bohr) occupying 0.718411 of unit cell:	Completed after 5 iterations at t[s]:   5551.53
SCF: Cycle: 20   F: -2321.143499103050999   dF: -1.036e-06   |Residual|: 1.968e-04   |deigs|: 5.331e-05  t[s]:   5553.32
	Linear fluid (dielectric constant: 78.4, screening length: 5.74355 Bohr) occupying 0.718418 of unit cell:	Completed after 3 iterations at t[s]:   5554.39
	FillingsUpdate:  mu: -0.171198334  nElectrons: 521.000000
	Linear fluid (dielectric constant: 78.4, screening length: 5.74355 Bohr) occupying 0.718418 of unit cell:	Completed after 5 iterations at t[s]:   5656.26
SCF: Cycle: 21   F: -2321.143499453256027   dF: -3.502e-07   |Residual|: 1.751e-04   |deigs|: 9.945e-05  t[s]:   5657.94
	Linear fluid (dielectric constant: 78.4, screening length: 5.74355 Bohr) occupying 0.718421 of unit cell:	Completed after 3 iterations at t[s]:   5659.00
	FillingsUpdate:  mu: -0.171082518  nElectrons: 521.000000
	Linear fluid (dielectric constant: 78.4, screening length: 5.74355 Bohr) occupying 0.718409 of unit cell:	Completed after 8 iterations at t[s]:   5768.89
SCF: Cycle: 22   F: -2321.143497084878163   dF: +2.368e-06   |Residual|: 2.744e-04   |deigs|: 1.211e-04  t[s]:   5770.73
	Linear fluid (dielectric constant: 78.4, screening length: 5.74355 Bohr) occupying 0.718421 of unit cell:	Completed after 8 iterations at t[s]:   5772.40
	FillingsUpdate:  mu: -0.171134959  nElectrons: 521.000000
	Linear fluid (dielectric constant: 78.4, screening length: 5.74355 Bohr) occupying 0.718414 of unit cell:	Completed after 4 iterations at t[s]:   5861.76
SCF: Cycle: 23   F: -2321.143499521554077   dF: -2.437e-06   |Residual|: 1.543e-04   |deigs|: 5.600e-05  t[s]:   5863.53
	Linear fluid (dielectric constant: 78.4, screening length: 5.74355 Bohr) occupying 0.718413 of unit cell:	Completed after 4 iterations at t[s]:   5864.73
	FillingsUpdate:  mu: -0.171170888  nElectrons: 521.000000
	Linear fluid (dielectric constant: 78.4, screening length: 5.74355 Bohr) occupying 0.718415 of unit cell:	Completed after 3 iterations at t[s]:   5966.49
SCF: Cycle: 24   F: -2321.143500156062146   dF: -6.345e-07   |Residual|: 9.561e-05   |deigs|: 4.022e-05  t[s]:   5968.28
	Linear fluid (dielectric constant: 78.4, screening length: 5.74355 Bohr) occupying 0.718414 of unit cell:	Completed after 2 iterations at t[s]:   5969.23
	FillingsUpdate:  mu: -0.171113160  nElectrons: 521.000000
	Linear fluid (dielectric constant: 78.4, screening length: 5.74355 Bohr) occupying 0.718411 of unit cell:	Completed after 5 iterations at t[s]:   6078.79
SCF: Cycle: 25   F: -2321.143498476963487   dF: +1.679e-06   |Residual|: 2.163e-04   |deigs|: 6.204e-05  t[s]:   6080.59
	Linear fluid (dielectric constant: 78.4, screening length: 5.74355 Bohr) occupying 0.718406 of unit cell:	Completed after 4 iterations at t[s]:   6081.75
	FillingsUpdate:  mu: -0.171206185  nElectrons: 521.000000
	Linear fluid (dielectric constant: 78.4, screening length: 5.74355 Bohr) occupying 0.718417 of unit cell:	Completed after 4 iterations at t[s]:   6190.17
SCF: Cycle: 26   F: -2321.143499751784475   dF: -1.275e-06   |Residual|: 1.185e-04   |deigs|: 9.975e-05  t[s]:   6192.01
	Linear fluid (dielectric constant: 78.4, screening length: 5.74355 Bohr) occupying 0.718407 of unit cell:	Completed after 4 iterations at t[s]:   6193.12
	FillingsUpdate:  mu: -0.171091551  nElectrons: 521.000000
	Linear fluid (dielectric constant: 78.4, screening length: 5.74355 Bohr) occupying 0.718408 of unit cell:	Completed after 8 iterations at t[s]:   6301.66
SCF: Cycle: 27   F: -2321.143497547822335   dF: +2.204e-06   |Residual|: 2.412e-04   |deigs|: 1.196e-04  t[s]:   6303.29
	Linear fluid (dielectric constant: 78.4, screening length: 5.74355 Bohr) occupying 0.718407 of unit cell:	Completed after 8 iterations at t[s]:   6304.92
	FillingsUpdate:  mu: -0.171151226  nElectrons: 521.000000
	Linear fluid (dielectric constant: 78.4, screening length: 5.74355 Bohr) occupying 0.718413 of unit cell:	Completed after 3 iterations at t[s]:   6400.70
SCF: Cycle: 28   F: -2321.143499999880532   dF: -2.452e-06   |Residual|: 1.111e-04   |deigs|: 6.283e-05  t[s]:   6402.63
	Linear fluid (dielectric constant: 78.4, screening length: 5.74355 Bohr) occupying 0.718406 of unit cell:	Completed after 3 iterations at t[s]:   6403.72
	FillingsUpdate:  mu: -0.171166676  nElectrons: 521.000000
	Linear fluid (dielectric constant: 78.4, screening length: 5.74355 Bohr) occupying 0.718414 of unit cell:	Completed after 3 iterations at t[s]:   6500.11
SCF: Cycle: 29   F: -2321.143500213944662   dF: -2.141e-07   |Residual|: 8.238e-05   |deigs|: 1.994e-05  t[s]:   6501.86
	Linear fluid (dielectric constant: 78.4, screening length: 5.74355 Bohr) occupying 0.718407 of unit cell:	Completed after 1 iterations at t[s]:   6502.73
	FillingsUpdate:  mu: -0.171117939  nElectrons: 521.000000
	Linear fluid (dielectric constant: 78.4, screening length: 5.74355 Bohr) occupying 0.718411 of unit cell:	Completed after 7 iterations at t[s]:   6611.21
SCF: Cycle: 30   F: -2321.143496343070183   dF: +3.871e-06   |Residual|: 3.024e-04   |deigs|: 5.637e-05  t[s]:   6612.81
	Linear fluid (dielectric constant: 78.4, screening length: 5.74355 Bohr) occupying 0.718405 of unit cell:	Completed after 3 iterations at t[s]:   6613.84
	FillingsUpdate:  mu: -0.171270489  nElectrons: 521.000000
	Linear fluid (dielectric constant: 78.4, screening length: 5.74355 Bohr) occupying 0.718422 of unit cell:	Completed after 9 iterations at t[s]:   6716.68
SCF: Cycle: 31   F: -2321.143496359384699   dF: -1.631e-08   |Residual|: 2.819e-04   |deigs|: 1.597e-04  t[s]:   6718.54
	Linear fluid (dielectric constant: 78.4, screening length: 5.74355 Bohr) occupying 0.718405 of unit cell:	Completed after 5 iterations at t[s]:   6719.85
	FillingsUpdate:  mu: -0.171008728  nElectrons: 521.000000
	Linear fluid (dielectric constant: 78.4, screening length: 5.74355 Bohr) occupying 0.718401 of unit cell:	Completed after 8 iterations at t[s]:   6829.13
SCF: Cycle: 32   F: -2321.143494230708711   dF: +2.129e-06   |Residual|: 3.454e-04   |deigs|: 2.700e-04  t[s]:   6830.74
	Linear fluid (dielectric constant: 78.4, screening length: 5.74355 Bohr) occupying 0.718405 of unit cell:	Completed after 8 iterations at t[s]:   6832.33
	FillingsUpdate:  mu: -0.171169079  nElectrons: 521.000000
	Linear fluid (dielectric constant: 78.4, screening length: 5.74355 Bohr) occupying 0.718415 of unit cell:	Completed after 3 iterations at t[s]:   6921.77
SCF: Cycle: 33   F: -2321.143500068119465   dF: -5.837e-06   |Residual|: 1.145e-04   |deigs|: 1.654e-04  t[s]:   6923.49
	Linear fluid (dielectric constant: 78.4, screening length: 5.74355 Bohr) occupying 0.718403 of unit cell:	Completed after 3 iterations at t[s]:   6924.52
	FillingsUpdate:  mu: -0.171179691  nElectrons: 521.000000
	Linear fluid (dielectric constant: 78.4, screening length: 5.74355 Bohr) occupying 0.718414 of unit cell:	Completed after 3 iterations at t[s]:   7012.67
SCF: Cycle: 34   F: -2321.143500141251025   dF: -7.313e-08   |Residual|: 9.324e-05   |deigs|: 1.298e-05  t[s]:   7014.50
	Linear fluid (dielectric constant: 78.4, screening length: 5.74355 Bohr) occupying 0.718404 of unit cell:	Completed after 3 iterations at t[s]:   7015.54
	FillingsUpdate:  mu: -0.171128573  nElectrons: 521.000000
	Linear fluid (dielectric constant: 78.4, screening length: 5.74355 Bohr) occupying 0.718410 of unit cell:	Completed after 4 iterations at t[s]:   7124.33
SCF: Cycle: 35   F: -2321.143498928326153   dF: +1.213e-06   |Residual|: 1.864e-04   |deigs|: 5.531e-05  t[s]:   7125.93
	Linear fluid (dielectric constant: 78.4, screening length: 5.74355 Bohr) occupying 0.718403 of unit cell:	Completed after 4 iterations at t[s]:   7127.04
	FillingsUpdate:  mu: -0.171213524  nElectrons: 521.000000
	Linear fluid (dielectric constant: 78.4, screening length: 5.74355 Bohr) occupying 0.718417 of unit cell:	Completed after 5 iterations at t[s]:   7216.66
SCF: Cycle: 36   F: -2321.143499349327612   dF: -4.210e-07   |Residual|: 1.627e-04   |deigs|: 8.931e-05  t[s]:   7218.38
	Linear fluid (dielectric constant: 78.4, screening length: 5.74355 Bohr) occupying 0.718403 of unit cell:	Completed after 3 iterations at t[s]:   7219.43
	FillingsUpdate:  mu: -0.171099947  nElectrons: 521.000000
	Linear fluid (dielectric constant: 78.4, screening length: 5.74355 Bohr) occupying 0.718408 of unit cell:	Completed after 7 iterations at t[s]:   7329.38
SCF: Cycle: 37   F: -2321.143497580324947   dF: +1.769e-06   |Residual|: 2.472e-04   |deigs|: 1.182e-04  t[s]:   7331.24
	Linear fluid (dielectric constant: 78.4, screening length: 5.74355 Bohr) occupying 0.718403 of unit cell:	Completed after 4 iterations at t[s]:   7332.47
	FillingsUpdate:  mu: -0.171265181  nElectrons: 521.000000
	Linear fluid (dielectric constant: 78.4, screening length: 5.74355 Bohr) occupying 0.718421 of unit cell:	Completed after 8 iterations at t[s]:   7427.52
SCF: Cycle: 38   F: -2321.143497991108688   dF: -4.108e-07   |Residual|: 2.384e-04   |deigs|: 1.707e-04  t[s]:   7429.23
	Linear fluid (dielectric constant: 78.4, screening length: 5.74355 Bohr) occupying 0.718404 of unit cell:	Completed after 5 iterations at t[s]:   7430.44
	FillingsUpdate:  mu: -0.171053264  nElectrons: 521.000000
	Linear fluid (dielectric constant: 78.4, screening length: 5.74355 Bohr) occupying 0.718404 of unit cell:	Completed after 8 iterations at t[s]:   7538.19
SCF: Cycle: 39   F: -2321.143495927899039   dF: +2.063e-06   |Residual|: 2.990e-04   |deigs|: 2.178e-04  t[s]:   7540.01
	Linear fluid (dielectric constant: 78.4, screening length: 5.74355 Bohr) occupying 0.718405 of unit cell:	Completed after 8 iterations at t[s]:   7541.66
	FillingsUpdate:  mu: -0.171184058  nElectrons: 521.000000
	Linear fluid (dielectric constant: 78.4, screening length: 5.74355 Bohr) occupying 0.718415 of unit cell:	Completed after 3 iterations at t[s]:   7630.35
SCF: Cycle: 40   F: -2321.143500028924336   dF: -4.101e-06   |Residual|: 1.216e-04   |deigs|: 1.352e-04  t[s]:   7632.08
	Linear fluid (dielectric constant: 78.4, screening length: 5.74355 Bohr) occupying 0.718405 of unit cell:	Completed after 3 iterations at t[s]:   7633.13
	FillingsUpdate:  mu: -0.171165232  nElectrons: 521.000000
	Linear fluid (dielectric constant: 78.4, screening length: 5.74355 Bohr) occupying 0.718413 of unit cell:	Completed after 2 iterations at t[s]:   7701.32
SCF: Cycle: 41   F: -2321.143500319023588   dF: -2.901e-07   |Residual|: 8.386e-05   |deigs|: 2.062e-05  t[s]:   7702.94
	Linear fluid (dielectric constant: 78.4, screening length: 5.74355 Bohr) occupying 0.718406 of unit cell:	Completed after 1 iterations at t[s]:   7703.78
	FillingsUpdate:  mu: -0.171165330  nElectrons: 521.000000
	Linear fluid (dielectric constant: 78.4, screening length: 5.74355 Bohr) occupying 0.718413 of unit cell:	Completed after 3 iterations at t[s]:   7804.73
SCF: Cycle: 42   F: -2321.143499764431908   dF: +5.546e-07   |Residual|: 1.150e-04   |deigs|: 1.398e-05  t[s]:   7806.53
	Linear fluid (dielectric constant: 78.4, screening length: 5.74355 Bohr) occupying 0.718407 of unit cell:	Completed after 3 iterations at t[s]:   7807.58
	FillingsUpdate:  mu: -0.171135736  nElectrons: 521.000000
	Linear fluid (dielectric constant: 78.4, screening length: 5.74355 Bohr) occupying 0.718412 of unit cell:	Completed after 7 iterations at t[s]:   7896.18
SCF: Cycle: 43   F: -2321.143498213381008   dF: +1.551e-06   |Residual|: 2.173e-04   |deigs|: 4.169e-05  t[s]:   7897.95
	Linear fluid (dielectric constant: 78.4, screening length: 5.74355 Bohr) occupying 0.718408 of unit cell:	Completed after 5 iterations at t[s]:   7899.27
	FillingsUpdate:  mu: -0.171197717  nElectrons: 521.000000
	Linear fluid (dielectric constant: 78.4, screening length: 5.74355 Bohr) occupying 0.718415 of unit cell:	Completed after 3 iterations at t[s]:   7981.27
SCF: Cycle: 44   F: -2321.143500030035284   dF: -1.817e-06   |Residual|: 1.309e-04   |deigs|: 6.666e-05  t[s]:   7982.88
	Linear fluid (dielectric constant: 78.4, screening length: 5.74355 Bohr) occupying 0.718409 of unit cell:	Completed after 3 iterations at t[s]:   7983.92
	FillingsUpdate:  mu: -0.171137717  nElectrons: 521.000000
	Linear fluid (dielectric constant: 78.4, screening length: 5.74355 Bohr) occupying 0.718411 of unit cell:	Completed after 4 iterations at t[s]:   8053.06
SCF: Cycle: 45   F: -2321.143499590118608   dF: +4.399e-07   |Residual|: 1.597e-04   |deigs|: 6.281e-05  t[s]:   8054.69
	Linear fluid (dielectric constant: 78.4, screening length: 5.74355 Bohr) occupying 0.718410 of unit cell:	Completed after 4 iterations at t[s]:   8055.89
	FillingsUpdate:  mu: -0.171202407  nElectrons: 521.000000
	Linear fluid (dielectric constant: 78.4, screening length: 5.74355 Bohr) occupying 0.718416 of unit cell:	Completed after 5 iterations at t[s]:   8157.69
SCF: Cycle: 46   F: -2321.143499414748476   dF: +1.754e-07   |Residual|: 1.791e-04   |deigs|: 6.845e-05  t[s]:   8159.44
	Linear fluid (dielectric constant: 78.4, screening length: 5.74355 Bohr) occupying 0.718410 of unit cell:	Completed after 3 iterations at t[s]:   8160.53
	FillingsUpdate:  mu: -0.171101458  nElectrons: 521.000000
	Linear fluid (dielectric constant: 78.4, screening length: 5.74355 Bohr) occupying 0.718409 of unit cell:	Completed after 7 iterations at t[s]:   8271.05
SCF: Cycle: 47   F: -2321.143497482784824   dF: +1.932e-06   |Residual|: 2.635e-04   |deigs|: 1.056e-04  t[s]:   8272.84
	Linear fluid (dielectric constant: 78.4, screening length: 5.74355 Bohr) occupying 0.718409 of unit cell:	Completed after 4 iterations at t[s]:   8274.08
	FillingsUpdate:  mu: -0.171268116  nElectrons: 521.000000
	Linear fluid (dielectric constant: 78.4, screening length: 5.74355 Bohr) occupying 0.718422 of unit cell:	Completed after 8 iterations at t[s]:   8369.23
SCF: Cycle: 48   F: -2321.143497805021525   dF: -3.222e-07   |Residual|: 2.666e-04   |deigs|: 1.725e-04  t[s]:   8371.09
	Linear fluid (dielectric constant: 78.4, screening length: 5.74355 Bohr) occupying 0.718408 of unit cell:	Completed after 7 iterations at t[s]:   8372.60
	FillingsUpdate:  mu: -0.171101157  nElectrons: 521.000000
	Linear fluid (dielectric constant: 78.4, screening length: 5.74355 Bohr) occupying 0.718408 of unit cell:	Completed after 7 iterations at t[s]:   8481.63
SCF: Cycle: 49   F: -2321.143498744195313   dF: -9.392e-07   |Residual|: 2.022e-04   |deigs|: 1.720e-04  t[s]:   8483.56
	Linear fluid (dielectric constant: 78.4, screening length: 5.74355 Bohr) occupying 0.718408 of unit cell:	Completed after 4 iterations at t[s]:   8484.78
	FillingsUpdate:  mu: -0.171224875  nElectrons: 521.000000
	Linear fluid (dielectric constant: 78.4, screening length: 5.74355 Bohr) occupying 0.718417 of unit cell:	Completed after 5 iterations at t[s]:   8572.97
SCF: Cycle: 50   F: -2321.143498933915907   dF: -1.897e-07   |Residual|: 2.055e-04   |deigs|: 1.278e-04  t[s]:   8575.02
	Linear fluid (dielectric constant: 78.4, screening length: 5.74355 Bohr) occupying 0.718408 of unit cell:	Completed after 3 iterations at t[s]:   8576.14
	FillingsUpdate:  mu: -0.171086060  nElectrons: 521.000000
	Linear fluid (dielectric constant: 78.4, screening length: 5.74355 Bohr) occupying 0.718407 of unit cell:	Completed after 9 iterations at t[s]:   8685.41
SCF: Cycle: 51   F: -2321.143496377826523   dF: +2.556e-06   |Residual|: 2.925e-04   |deigs|: 1.444e-04  t[s]:   8687.07
	Linear fluid (dielectric constant: 78.4, screening length: 5.74355 Bohr) occupying 0.718408 of unit cell:	Completed after 7 iterations at t[s]:   8688.57
	FillingsUpdate:  mu: -0.171209460  nElectrons: 521.000000
	Linear fluid (dielectric constant: 78.4, screening length: 5.74355 Bohr) occupying 0.718417 of unit cell:	Completed after 4 iterations at t[s]:   8772.39
SCF: Cycle: 52   F: -2321.143499653227536   dF: -3.275e-06   |Residual|: 1.629e-04   |deigs|: 1.276e-04  t[s]:   8774.08
	Linear fluid (dielectric constant: 78.4, screening length: 5.74355 Bohr) occupying 0.718407 of unit cell:	Completed after 4 iterations at t[s]:   8775.24
	FillingsUpdate:  mu: -0.171153819  nElectrons: 521.000000
	Linear fluid (dielectric constant: 78.4, screening length: 5.74355 Bohr) occupying 0.718412 of unit cell:	Completed after 3 iterations at t[s]:   8848.83
SCF: Cycle: 53   F: -2321.143500132677218   dF: -4.794e-07   |Residual|: 1.101e-04   |deigs|: 5.759e-05  t[s]:   8850.48
	Linear fluid (dielectric constant: 78.4, screening length: 5.74355 Bohr) occupying 0.718406 of unit cell:	Completed after 3 iterations at t[s]:   8851.52
	FillingsUpdate:  mu: -0.171187021  nElectrons: 521.000000
	Linear fluid (dielectric constant: 78.4, screening length: 5.74355 Bohr) occupying 0.718414 of unit cell:	Completed after 4 iterations at t[s]:   8950.42
SCF: Cycle: 54   F: -2321.143499753629385   dF: +3.790e-07   |Residual|: 1.441e-04   |deigs|: 3.586e-05  t[s]:   8952.00
	Linear fluid (dielectric constant: 78.4, screening length: 5.74355 Bohr) occupying 0.718407 of unit cell:	Completed after 4 iterations at t[s]:   8953.13
	FillingsUpdate:  mu: -0.171117284  nElectrons: 521.000000
	Linear fluid (dielectric constant: 78.4, screening length: 5.74355 Bohr) occupying 0.718409 of unit cell:	Completed after 5 iterations at t[s]:   9053.25
SCF: Cycle: 55   F: -2321.143498819282740   dF: +9.343e-07   |Residual|: 1.956e-04   |deigs|: 7.348e-05  t[s]:   9054.93
	Linear fluid (dielectric constant: 78.4, screening length: 5.74355 Bohr) occupying 0.718408 of unit cell:	Completed after 3 iterations at t[s]:   9055.94
	FillingsUpdate:  mu: -0.171236186  nElectrons: 521.000000
	Linear fluid (dielectric constant: 78.4, screening length: 5.74355 Bohr) occupying 0.718418 of unit cell:	Completed after 7 iterations at t[s]:   9149.02
SCF: Cycle: 56   F: -2321.143498086186355   dF: +7.331e-07   |Residual|: 2.428e-04   |deigs|: 1.237e-04  t[s]:   9150.62
	Linear fluid (dielectric constant: 78.4, screening length: 5.74355 Bohr) occupying 0.718408 of unit cell:	Completed after 4 iterations at t[s]:   9151.78
	FillingsUpdate:  mu: -0.171058140  nElectrons: 521.000000
	Linear fluid (dielectric constant: 78.4, screening length: 5.74355 Bohr) occupying 0.718405 of unit cell:	Completed after 9 iterations at t[s]:   9258.23
SCF: Cycle: 57   F: -2321.143495677900773   dF: +2.408e-06   |Residual|: 3.133e-04   |deigs|: 1.844e-04  t[s]:   9259.88
	Linear fluid (dielectric constant: 78.4, screening length: 5.74355 Bohr) occupying 0.718408 of unit cell:	Completed after 8 iterations at t[s]:   9261.40
	FillingsUpdate:  mu: -0.171195417  nElectrons: 521.000000
	Linear fluid (dielectric constant: 78.4, screening length: 5.74355 Bohr) occupying 0.718416 of unit cell:	Completed after 3 iterations at t[s]:   9335.16
SCF: Cycle: 58   F: -2321.143499839106425   dF: -4.161e-06   |Residual|: 1.369e-04   |deigs|: 1.416e-04  t[s]:   9336.83
	Linear fluid (dielectric constant: 78.4, screening length: 5.74355 Bohr) occupying 0.718408 of unit cell:	Completed after 3 iterations at t[s]:   9337.86
	FillingsUpdate:  mu: -0.171164600  nElectrons: 521.000000
	Linear fluid (dielectric constant: 78.4, screening length: 5.74355 Bohr) occupying 0.718413 of unit cell:	Completed after 2 iterations at t[s]:   9404.86
SCF: Cycle: 59   F: -2321.143500322614273   dF: -4.835e-07   |Residual|: 8.872e-05   |deigs|: 3.273e-05  t[s]:   9406.25
	Linear fluid (dielectric constant: 78.4, screening length: 5.74355 Bohr) occupying 0.718408 of unit cell:	Completed after 1 iterations at t[s]:   9407.06
	FillingsUpdate:  mu: -0.171171158  nElectrons: 521.000000
	Linear fluid (dielectric constant: 78.4, screening length: 5.74355 Bohr) occupying 0.718413 of unit cell:	Completed after 3 iterations at t[s]:   9493.65
SCF: Cycle: 60   F: -2321.143499849150885   dF: +4.735e-07   |Residual|: 1.211e-04   |deigs|: 1.341e-05  t[s]:   9495.37
	Linear fluid (dielectric constant: 78.4, screening length: 5.74355 Bohr) occupying 0.718409 of unit cell:	Completed after 3 iterations at t[s]:   9496.44
	FillingsUpdate:  mu: -0.171127731  nElectrons: 521.000000
	Linear fluid (dielectric constant: 78.4, screening length: 5.74355 Bohr) occupying 0.718411 of unit cell:	Completed after 5 iterations at t[s]:   9589.13
SCF: Cycle: 61   F: -2321.143498814769373   dF: +1.034e-06   |Residual|: 1.910e-04   |deigs|: 4.986e-05  t[s]:   9590.78
	Linear fluid (dielectric constant: 78.4, screening length: 5.74355 Bohr) occupying 0.718410 of unit cell:	Completed after 3 iterations at t[s]:   9591.81
	FillingsUpdate:  mu: -0.171220948  nElectrons: 521.000000
	Linear fluid (dielectric constant: 78.4, screening length: 5.74355 Bohr) occupying 0.718418 of unit cell:	Completed after 8 iterations at t[s]:   9678.38
SCF: Cycle: 62   F: -2321.143498702579109   dF: +1.122e-07   |Residual|: 1.885e-04   |deigs|: 9.808e-05  t[s]:   9680.19
	Linear fluid (dielectric constant: 78.4, screening length: 5.74355 Bohr) occupying 0.718410 of unit cell:	Completed after 4 iterations at t[s]:   9681.33
	FillingsUpdate:  mu: -0.171060978  nElectrons: 521.000000
	Linear fluid (dielectric constant: 78.4, screening length: 5.74355 Bohr) occupying 0.718405 of unit cell:	Completed after 9 iterations at t[s]:   9787.92
SCF: Cycle: 63   F: -2321.143496359015444   dF: +2.344e-06   |Residual|: 2.873e-04   |deigs|: 1.661e-04  t[s]:   9789.63
	Linear fluid (dielectric constant: 78.4, screening length: 5.74355 Bohr) occupying 0.718409 of unit cell:	Completed after 8 iterations at t[s]:   9791.21
	FillingsUpdate:  mu: -0.171188536  nElectrons: 521.000000
	Linear fluid (dielectric constant: 78.4, screening length: 5.74355 Bohr) occupying 0.718416 of unit cell:	Completed after 4 iterations at t[s]:   9865.19
SCF: Cycle: 64   F: -2321.143499743400298   dF: -3.384e-06   |Residual|: 1.377e-04   |deigs|: 1.316e-04  t[s]:   9866.78
	Linear fluid (dielectric constant: 78.4, screening length: 5.74355 Bohr) occupying 0.718409 of unit cell:	Completed after 3 iterations at t[s]:   9867.82
	FillingsUpdate:  mu: -0.171170303  nElectrons: 521.000000
	Linear fluid (dielectric constant: 78.4, screening length: 5.74355 Bohr) occupying 0.718414 of unit cell:	Completed after 1 iterations at t[s]:   9934.53
SCF: Cycle: 65   F: -2321.143500378760564   dF: -6.354e-07   |Residual|: 7.629e-05   |deigs|: 2.046e-05  t[s]:   9936.12
	Linear fluid (dielectric constant: 78.4, screening length: 5.74355 Bohr) occupying 0.718409 of unit cell:	Completed after 0 iterations at t[s]:   9936.70
	FillingsUpdate:  mu: -0.171161613  nElectrons: 521.000000
	Linear fluid (dielectric constant: 78.4, screening length: 5.74355 Bohr) occupying 0.718413 of unit cell:	Completed after 4 iterations at t[s]:  10029.84
SCF: Cycle: 66   F: -2321.143499932021768   dF: +4.467e-07   |Residual|: 1.055e-04   |deigs|: 1.508e-05  t[s]:  10031.44
	Linear fluid (dielectric constant: 78.4, screening length: 5.74355 Bohr) occupying 0.718410 of unit cell:	Completed after 2 iterations at t[s]:  10032.37
	FillingsUpdate:  mu: -0.171157141  nElectrons: 521.000000
	Linear fluid (dielectric constant: 78.4, screening length: 5.74355 Bohr) occupying 0.718414 of unit cell:	Completed after 8 iterations at t[s]:  10138.15
SCF: Cycle: 67   F: -2321.143496164453609   dF: +3.768e-06   |Residual|: 3.095e-04   |deigs|: 3.601e-05  t[s]:  10139.74
	Linear fluid (dielectric constant: 78.4, screening length: 5.74355 Bohr) occupying 0.718410 of unit cell:	Completed after 8 iterations at t[s]:  10141.25
	FillingsUpdate:  mu: -0.171148652  nElectrons: 521.000000
	Linear fluid (dielectric constant: 78.4, screening length: 5.74355 Bohr) occupying 0.718412 of unit cell:	Completed after 3 iterations at t[s]:  10215.65
SCF: Cycle: 68   F: -2321.143499620847251   dF: -3.456e-06   |Residual|: 1.526e-04   |deigs|: 1.974e-05  t[s]:  10217.28
	Linear fluid (dielectric constant: 78.4, screening length: 5.74355 Bohr) occupying 0.718410 of unit cell:	Completed after 4 iterations at t[s]:  10218.41
	FillingsUpdate:  mu: -0.171165510  nElectrons: 521.000000
	Linear fluid (dielectric constant: 78.4, screening length: 5.74355 Bohr) occupying 0.718413 of unit cell:	Completed after 2 iterations at t[s]:  10285.62
SCF: Cycle: 69   F: -2321.143500094965930   dF: -4.741e-07   |Residual|: 1.142e-04   |deigs|: 1.805e-05  t[s]:  10287.25
	Linear fluid (dielectric constant: 78.4, screening length: 5.74355 Bohr) occupying 0.718410 of unit cell:	Completed after 4 iterations at t[s]:  10288.39
	FillingsUpdate:  mu: -0.171146084  nElectrons: 521.000000
	Linear fluid (dielectric constant: 78.4, screening length: 5.74355 Bohr) occupying 0.718412 of unit cell:	Completed after 2 iterations at t[s]:  10387.63
SCF: Cycle: 70   F: -2321.143500106257761   dF: -1.129e-08   |Residual|: 1.092e-04   |deigs|: 2.086e-05  t[s]:  10389.28
	Linear fluid (dielectric constant: 78.4, screening length: 5.74355 Bohr) occupying 0.718410 of unit cell:	Completed after 3 iterations at t[s]:  10390.29
	FillingsUpdate:  mu: -0.171166929  nElectrons: 521.000000
	Linear fluid (dielectric constant: 78.4, screening length: 5.74355 Bohr) occupying 0.718413 of unit cell:	Completed after 2 iterations at t[s]:  10496.75
SCF: Cycle: 71   F: -2321.143500327268157   dF: -2.210e-07   |Residual|: 6.927e-05   |deigs|: 2.368e-05  t[s]:  10498.45
	Linear fluid (dielectric constant: 78.4, screening length: 5.74355 Bohr) occupying 0.718410 of unit cell:	Completed after 1 iterations at t[s]:  10499.30
	FillingsUpdate:  mu: -0.171137892  nElectrons: 521.000000
	Linear fluid (dielectric constant: 78.4, screening length: 5.74355 Bohr) occupying 0.718412 of unit cell:	Completed after 3 iterations at t[s]:  10593.08
SCF: Cycle: 72   F: -2321.143499542476548   dF: +7.848e-07   |Residual|: 1.502e-04   |deigs|: 3.309e-05  t[s]:  10594.72
	Linear fluid (dielectric constant: 78.4, screening length: 5.74355 Bohr) occupying 0.718410 of unit cell:	Completed after 3 iterations at t[s]:  10595.69
	FillingsUpdate:  mu: -0.171203606  nElectrons: 521.000000
	Linear fluid (dielectric constant: 78.4, screening length: 5.74355 Bohr) occupying 0.718417 of unit cell:	Completed after 6 iterations at t[s]:  10669.67
SCF: Cycle: 73   F: -2321.143498805791296   dF: +7.367e-07   |Residual|: 1.875e-04   |deigs|: 7.042e-05  t[s]:  10671.46
	Linear fluid (dielectric constant: 78.4, screening length: 5.74355 Bohr) occupying 0.718410 of unit cell:	Completed after 3 iterations at t[s]:  10672.51
	FillingsUpdate:  mu: -0.171071465  nElectrons: 521.000000
	Linear fluid (dielectric constant: 78.4, screening length: 5.74355 Bohr) occupying 0.718406 of unit cell:	Completed after 9 iterations at t[s]:  10772.11
SCF: Cycle: 74   F: -2321.143496424793739   dF: +2.381e-06   |Residual|: 2.836e-04   |deigs|: 1.377e-04  t[s]:  10773.68
	Linear fluid (dielectric constant: 78.4, screening length: 5.74355 Bohr) occupying 0.718410 of unit cell:	Completed after 8 iterations at t[s]:  10775.25
	FillingsUpdate:  mu: -0.171184343  nElectrons: 521.000000
	Linear fluid (dielectric constant: 78.4, screening length: 5.74355 Bohr) occupying 0.718416 of unit cell:	Completed after 4 iterations at t[s]:  10848.99
SCF: Cycle: 75   F: -2321.143499634440104   dF: -3.210e-06   |Residual|: 1.454e-04   |deigs|: 1.166e-04  t[s]:  10850.78
	Linear fluid (dielectric constant: 78.4, screening length: 5.74355 Bohr) occupying 0.718411 of unit cell:	Completed after 4 iterations at t[s]:  10851.91
	FillingsUpdate:  mu: -0.171161165  nElectrons: 521.000000
	Linear fluid (dielectric constant: 78.4, screening length: 5.74355 Bohr) occupying 0.718413 of unit cell:	Completed after 2 iterations at t[s]:  10925.16
SCF: Cycle: 76   F: -2321.143500297478113   dF: -6.630e-07   |Residual|: 8.528e-05   |deigs|: 2.506e-05  t[s]:  10926.81
	Linear fluid (dielectric constant: 78.4, screening length: 5.74355 Bohr) occupying 0.718412 of unit cell:	Completed after 1 iterations at t[s]:  10927.60
	FillingsUpdate:  mu: -0.171161742  nElectrons: 521.000000
	Linear fluid (dielectric constant: 78.4, screening length: 5.74355 Bohr) occupying 0.718413 of unit cell:	Completed after 3 iterations at t[s]:  11027.18
SCF: Cycle: 77   F: -2321.143499947263535   dF: +3.502e-07   |Residual|: 9.820e-05   |deigs|: 1.546e-05  t[s]:  11028.79
	Linear fluid (dielectric constant: 78.4, screening length: 5.74355 Bohr) occupying 0.718412 of unit cell:	Completed after 2 iterations at t[s]:  11029.72
	FillingsUpdate:  mu: -0.171141619  nElectrons: 521.000000
	Linear fluid (dielectric constant: 78.4, screening length: 5.74355 Bohr) occupying 0.718412 of unit cell:	Completed after 5 iterations at t[s]:  11135.56
SCF: Cycle: 78   F: -2321.143498264366826   dF: +1.683e-06   |Residual|: 2.264e-04   |deigs|: 3.447e-05  t[s]:  11137.34
	Linear fluid (dielectric constant: 78.4, screening length: 5.74355 Bohr) occupying 0.718412 of unit cell:	Completed after 5 iterations at t[s]:  11138.64
	FillingsUpdate:  mu: -0.171175328  nElectrons: 521.000000
	Linear fluid (dielectric constant: 78.4, screening length: 5.74355 Bohr) occupying 0.718414 of unit cell:	Completed after 2 iterations at t[s]:  11213.84
SCF: Cycle: 79   F: -2321.143500064289583   dF: -1.800e-06   |Residual|: 1.209e-04   |deigs|: 3.819e-05  t[s]:  11215.52
	Linear fluid (dielectric constant: 78.4, screening length: 5.74355 Bohr) occupying 0.718412 of unit cell:	Completed after 3 iterations at t[s]:  11216.56
	FillingsUpdate:  mu: -0.171139563  nElectrons: 521.000000
	Linear fluid (dielectric constant: 78.4, screening length: 5.74355 Bohr) occupying 0.718412 of unit cell:	Completed after 4 iterations at t[s]:  11291.12
SCF: Cycle: 80   F: -2321.143499920489830   dF: +1.438e-07   |Residual|: 1.225e-04   |deigs|: 3.772e-05  t[s]:  11292.89
	Linear fluid (dielectric constant: 78.4, screening length: 5.74355 Bohr) occupying 0.718412 of unit cell:	Completed after 3 iterations at t[s]:  11293.94
	FillingsUpdate:  mu: -0.171187384  nElectrons: 521.000000
	Linear fluid (dielectric constant: 78.4, screening length: 5.74355 Bohr) occupying 0.718415 of unit cell:	Completed after 5 iterations at t[s]:  11400.06
SCF: Cycle: 81   F: -2321.143499481399886   dF: +4.391e-07   |Residual|: 1.589e-04   |deigs|: 5.073e-05  t[s]:  11401.60
	Linear fluid (dielectric constant: 78.4, screening length: 5.74355 Bohr) occupying 0.718412 of unit cell:	Completed after 3 iterations at t[s]:  11402.63
	FillingsUpdate:  mu: -0.171093013  nElectrons: 521.000000
	Linear fluid (dielectric constant: 78.4, screening length: 5.74355 Bohr) occupying 0.718409 of unit cell:	Completed after 9 iterations at t[s]:  11508.80
SCF: Cycle: 82   F: -2321.143497376136111   dF: +2.105e-06   |Residual|: 2.493e-04   |deigs|: 9.934e-05  t[s]:  11510.42
	Linear fluid (dielectric constant: 78.4, screening length: 5.74355 Bohr) occupying 0.718412 of unit cell:	Completed after 4 iterations at t[s]:  11511.52
	FillingsUpdate:  mu: -0.171259210  nElectrons: 521.000000
	Linear fluid (dielectric constant: 78.4, screening length: 5.74355 Bohr) occupying 0.718422 of unit cell:	Completed after 9 iterations at t[s]:  11591.83
SCF: Cycle: 83   F: -2321.143497403246784   dF: -2.711e-08   |Residual|: 2.693e-04   |deigs|: 1.716e-04  t[s]:  11593.54
	Linear fluid (dielectric constant: 78.4, screening length: 5.74355 Bohr) occupying 0.718412 of unit cell:	Completed after 8 iterations at t[s]:  11595.07
	FillingsUpdate:  mu: -0.171112836  nElectrons: 521.000000
	Linear fluid (dielectric constant: 78.4, screening length: 5.74355 Bohr) occupying 0.718409 of unit cell:	Completed after 5 iterations at t[s]:  11701.96
SCF: Cycle: 84   F: -2321.143498584295230   dF: -1.181e-06   |Residual|: 2.072e-04   |deigs|: 1.507e-04  t[s]:  11703.92
	Linear fluid (dielectric constant: 78.4, screening length: 5.74355 Bohr) occupying 0.718412 of unit cell:	Completed after 3 iterations at t[s]:  11705.01
	FillingsUpdate:  mu: -0.171188797  nElectrons: 521.000000
	Linear fluid (dielectric constant: 78.4, screening length: 5.74355 Bohr) occupying 0.718415 of unit cell:	Completed after 5 iterations at t[s]:  11773.06
SCF: Cycle: 85   F: -2321.143499509052162   dF: -9.248e-07   |Residual|: 1.595e-04   |deigs|: 8.069e-05  t[s]:  11774.98
	Linear fluid (dielectric constant: 78.4, screening length: 5.74355 Bohr) occupying 0.718412 of unit cell:	Completed after 3 iterations at t[s]:  11776.11
	FillingsUpdate:  mu: -0.171091978  nElectrons: 521.000000
	Linear fluid (dielectric constant: 78.4, screening length: 5.74355 Bohr) occupying 0.718409 of unit cell:	Completed after 9 iterations at t[s]:  11864.57
SCF: Cycle: 86   F: -2321.143497199407648   dF: +2.310e-06   |Residual|: 2.600e-04   |deigs|: 1.024e-04  t[s]:  11866.22
	Linear fluid (dielectric constant: 78.4, screening length: 5.74355 Bohr) occupying 0.718412 of unit cell:	Completed after 5 iterations at t[s]:  11867.45
	FillingsUpdate:  mu: -0.171251222  nElectrons: 521.000000
	Linear fluid (dielectric constant: 78.4, screening length: 5.74355 Bohr) occupying 0.718421 of unit cell:	Completed after 7 iterations at t[s]:  11948.53
SCF: Cycle: 87   F: -2321.143497579157156   dF: -3.797e-07   |Residual|: 2.661e-04   |deigs|: 1.645e-04  t[s]:  11950.11
	Linear fluid (dielectric constant: 78.4, screening length: 5.74355 Bohr) occupying 0.718413 of unit cell:	Completed after 5 iterations at t[s]:  11951.33
	FillingsUpdate:  mu: -0.171070293  nElectrons: 521.000000
	Linear fluid (dielectric constant: 78.4, screening length: 5.74355 Bohr) occupying 0.718407 of unit cell:	Completed after 8 iterations at t[s]:  12058.84
SCF: Cycle: 88   F: -2321.143496679293548   dF: +8.999e-07   |Residual|: 2.822e-04   |deigs|: 1.858e-04  t[s]:  12060.70
	Linear fluid (dielectric constant: 78.4, screening length: 5.74355 Bohr) occupying 0.718413 of unit cell:	Completed after 7 iterations at t[s]:  12062.17
	FillingsUpdate:  mu: -0.171190584  nElectrons: 521.000000
	Linear fluid (dielectric constant: 78.4, screening length: 5.74355 Bohr) occupying 0.718416 of unit cell:	Completed after 5 iterations at t[s]:  12150.43
SCF: Cycle: 89   F: -2321.143499222263017   dF: -2.543e-06   |Residual|: 1.750e-04   |deigs|: 1.237e-04  t[s]:  12152.06
	Linear fluid (dielectric constant: 78.4, screening length: 5.74355 Bohr) occupying 0.718413 of unit cell:	Completed after 3 iterations at t[s]:  12153.12
	FillingsUpdate:  mu: -0.171157284  nElectrons: 521.000000
	Linear fluid (dielectric constant: 78.4, screening length: 5.74355 Bohr) occupying 0.718413 of unit cell:	Completed after 3 iterations at t[s]:  12220.08
SCF: Cycle: 90   F: -2321.143500245110772   dF: -1.023e-06   |Residual|: 9.447e-05   |deigs|: 3.645e-05  t[s]:  12221.76
	Linear fluid (dielectric constant: 78.4, screening length: 5.74355 Bohr) occupying 0.718413 of unit cell:	Completed after 2 iterations at t[s]:  12222.63
	FillingsUpdate:  mu: -0.171171508  nElectrons: 521.000000
	Linear fluid (dielectric constant: 78.4, screening length: 5.74355 Bohr) occupying 0.718414 of unit cell:	Completed after 4 iterations at t[s]:  12289.58
SCF: Cycle: 91   F: -2321.143499891900319   dF: +3.532e-07   |Residual|: 1.044e-04   |deigs|: 1.846e-05  t[s]:  12291.23
	Linear fluid (dielectric constant: 78.4, screening length: 5.74355 Bohr) occupying 0.718413 of unit cell:	Completed after 3 iterations at t[s]:  12292.25
	FillingsUpdate:  mu: -0.171123328  nElectrons: 521.000000
	Linear fluid (dielectric constant: 78.4, screening length: 5.74355 Bohr) occupying 0.718411 of unit cell:	Completed after 5 iterations at t[s]:  12392.16
SCF: Cycle: 92   F: -2321.143498855985399   dF: +1.036e-06   |Residual|: 1.969e-04   |deigs|: 5.221e-05  t[s]:  12393.70
	Linear fluid (dielectric constant: 78.4, screening length: 5.74355 Bohr) occupying 0.718413 of unit cell:	Completed after 5 iterations at t[s]:  12394.95
	FillingsUpdate:  mu: -0.171198965  nElectrons: 521.000000
	Linear fluid (dielectric constant: 78.4, screening length: 5.74355 Bohr) occupying 0.718416 of unit cell:	Completed after 4 iterations at t[s]:  12488.93
SCF: Cycle: 93   F: -2321.143499431724194   dF: -5.757e-07   |Residual|: 1.583e-04   |deigs|: 7.863e-05  t[s]:  12490.60
	Linear fluid (dielectric constant: 78.4, screening length: 5.74355 Bohr) occupying 0.718413 of unit cell:	Completed after 4 iterations at t[s]:  12491.71
	FillingsUpdate:  mu: -0.171125203  nElectrons: 521.000000
	Linear fluid (dielectric constant: 78.4, screening length: 5.74355 Bohr) occupying 0.718411 of unit cell:	Completed after 5 iterations at t[s]:  12584.59
SCF: Cycle: 94   F: -2321.143499091821923   dF: +3.399e-07   |Residual|: 1.795e-04   |deigs|: 7.702e-05  t[s]:  12586.25
	Linear fluid (dielectric constant: 78.4, screening length: 5.74355 Bohr) occupying 0.718412 of unit cell:	Completed after 3 iterations at t[s]:  12587.28
	FillingsUpdate:  mu: -0.171225177  nElectrons: 521.000000
	Linear fluid (dielectric constant: 78.4, screening length: 5.74355 Bohr) occupying 0.718419 of unit cell:	Completed after 6 iterations at t[s]:  12694.85
SCF: Cycle: 95   F: -2321.143498519440527   dF: +5.724e-07   |Residual|: 2.010e-04   |deigs|: 1.041e-04  t[s]:  12696.66
	Linear fluid (dielectric constant: 78.4, screening length: 5.74355 Bohr) occupying 0.718412 of unit cell:	Completed after 4 iterations at t[s]:  12697.85
	FillingsUpdate:  mu: -0.171078354  nElectrons: 521.000000
	Linear fluid (dielectric constant: 78.4, screening length: 5.74355 Bohr) occupying 0.718407 of unit cell:	Completed after 8 iterations at t[s]:  12803.17
SCF: Cycle: 96   F: -2321.143496391531244   dF: +2.128e-06   |Residual|: 2.854e-04   |deigs|: 1.525e-04  t[s]:  12804.76
	Linear fluid (dielectric constant: 78.4, screening length: 5.74355 Bohr) occupying 0.718412 of unit cell:	Completed after 8 iterations at t[s]:  12806.37
	FillingsUpdate:  mu: -0.171186518  nElectrons: 521.000000
	Linear fluid (dielectric constant: 78.4, screening length: 5.74355 Bohr) occupying 0.718416 of unit cell:	Completed after 4 iterations at t[s]:  12874.56
SCF: Cycle: 97   F: -2321.143499414167309   dF: -3.023e-06   |Residual|: 1.604e-04   |deigs|: 1.121e-04  t[s]:  12876.22
	Linear fluid (dielectric constant: 78.4, screening length: 5.74355 Bohr) occupying 0.718413 of unit cell:	Completed after 4 iterations at t[s]:  12877.35
	FillingsUpdate:  mu: -0.171160260  nElectrons: 521.000000
	Linear fluid (dielectric constant: 78.4, screening length: 5.74355 Bohr) occupying 0.718414 of unit cell:	Completed after 2 iterations at t[s]:  12945.29
SCF: Cycle: 98   F: -2321.143500209911963   dF: -7.957e-07   |Residual|: 9.680e-05   |deigs|: 2.816e-05  t[s]:  12947.04
	Linear fluid (dielectric constant: 78.4, screening length: 5.74355 Bohr) occupying 0.718412 of unit cell:	Completed after 3 iterations at t[s]:  12948.10
	FillingsUpdate:  mu: -0.171163201  nElectrons: 521.000000
	Linear fluid (dielectric constant: 78.4, screening length: 5.74355 Bohr) occupying 0.718414 of unit cell:	Completed after 1 iterations at t[s]:  13034.34
SCF: Cycle: 99   F: -2321.143500369173580   dF: -1.593e-07   |Residual|: 6.133e-05   |deigs|: 6.880e-06  t[s]:  13036.10
	Linear fluid (dielectric constant: 78.4, screening length: 5.74355 Bohr) occupying 0.718412 of unit cell:	Completed after 0 iterations at t[s]:  13036.72
	FillingsUpdate:  mu: -0.171153010  nElectrons: 521.000000
	Linear fluid (dielectric constant: 78.4, screening length: 5.74355 Bohr) occupying 0.718413 of unit cell:	Completed after 4 iterations at t[s]:  13144.68
SCF: Cycle: 100   F: -2321.143499724638787   dF: +6.445e-07   |Residual|: 1.187e-04   |deigs|: 1.720e-05  t[s]:  13146.47
	Linear fluid (dielectric constant: 78.4, screening length: 5.74355 Bohr) occupying 0.718413 of unit cell:	Completed after 4 iterations at t[s]:  13147.56
	FillingsUpdate:  mu: -0.171168024  nElectrons: 521.000000
	Linear fluid (dielectric constant: 78.4, screening length: 5.74355 Bohr) occupying 0.718415 of unit cell:	Completed after 8 iterations at t[s]:  13246.95
SCF: Cycle: 101   F: -2321.143497134375139   dF: +2.590e-06   |Residual|: 2.622e-04   |deigs|: 3.628e-05  t[s]:  13248.56
	Linear fluid (dielectric constant: 78.4, screening length: 5.74355 Bohr) occupying 0.718412 of unit cell:	Completed after 8 iterations at t[s]:  13250.09
	FillingsUpdate:  mu: -0.171144754  nElectrons: 521.000000
	Linear fluid (dielectric constant: 78.4, screening length: 5.74355 Bohr) occupying 0.718412 of unit cell:	Completed after 4 iterations at t[s]:  13317.90
SCF: Cycle: 102   F: -2321.143498860098134   dF: -1.726e-06   |Residual|: 1.967e-04   |deigs|: 2.609e-05  t[s]:  13319.52
	Linear fluid (dielectric constant: 78.4, screening length: 5.74355 Bohr) occupying 0.718413 of unit cell:	Completed after 4 iterations at t[s]:  13320.67
	FillingsUpdate:  mu: -0.171169851  nElectrons: 521.000000
	Linear fluid (dielectric constant: 78.4, screening length: 5.74355 Bohr) occupying 0.718414 of unit cell:	Completed after 3 iterations at t[s]:  13388.60
SCF: Cycle: 103   F: -2321.143500009691707   dF: -1.150e-06   |Residual|: 1.243e-04   |deigs|: 2.815e-05  t[s]:  13390.33
	Linear fluid (dielectric constant: 78.4, screening length: 5.74355 Bohr) occupying 0.718413 of unit cell:	Completed after 4 iterations at t[s]:  13391.41
	FillingsUpdate:  mu: -0.171142492  nElectrons: 521.000000
	Linear fluid (dielectric constant: 78.4, screening length: 5.74355 Bohr) occupying 0.718412 of unit cell:	Completed after 3 iterations at t[s]:  13459.43
SCF: Cycle: 104   F: -2321.143499770165818   dF: +2.395e-07   |Residual|: 1.494e-04   |deigs|: 2.888e-05  t[s]:  13461.24
	Linear fluid (dielectric constant: 78.4, screening length: 5.74355 Bohr) occupying 0.718413 of unit cell:	Completed after 4 iterations at t[s]:  13462.41
	FillingsUpdate:  mu: -0.171169637  nElectrons: 521.000000
	Linear fluid (dielectric constant: 78.4, screening length: 5.74355 Bohr) occupying 0.718414 of unit cell:	Completed after 3 iterations at t[s]:  13548.73
SCF: Cycle: 105   F: -2321.143499807803437   dF: -3.764e-08   |Residual|: 1.476e-04   |deigs|: 2.847e-05  t[s]:  13550.40
	Linear fluid (dielectric constant: 78.4, screening length: 5.74355 Bohr) occupying 0.718412 of unit cell:	Completed after 3 iterations at t[s]:  13551.46
	FillingsUpdate:  mu: -0.171140396  nElectrons: 521.000000
	Linear fluid (dielectric constant: 78.4, screening length: 5.74355 Bohr) occupying 0.718412 of unit cell:	Completed after 3 iterations at t[s]:  13656.91
SCF: Cycle: 106   F: -2321.143500125117043   dF: -3.173e-07   |Residual|: 1.028e-04   |deigs|: 3.177e-05  t[s]:  13658.53
	Linear fluid (dielectric constant: 78.4, screening length: 5.74355 Bohr) occupying 0.718412 of unit cell:	Completed after 3 iterations at t[s]:  13659.56
	FillingsUpdate:  mu: -0.171186393  nElectrons: 521.000000
	Linear fluid (dielectric constant: 78.4, screening length: 5.74355 Bohr) occupying 0.718415 of unit cell:	Completed after 5 iterations at t[s]:  13747.16
SCF: Cycle: 107   F: -2321.143499265706396   dF: +8.594e-07   |Residual|: 1.635e-04   |deigs|: 4.936e-05  t[s]:  13748.98
	Linear fluid (dielectric constant: 78.4, screening length: 5.74355 Bohr) occupying 0.718412 of unit cell:	Completed after 3 iterations at t[s]:  13750.02
	FillingsUpdate:  mu: -0.171091344  nElectrons: 521.000000
	Linear fluid (dielectric constant: 78.4, screening length: 5.74355 Bohr) occupying 0.718408 of unit cell:	Completed after 7 iterations at t[s]:  13837.50
SCF: Cycle: 108   F: -2321.143497173686228   dF: +2.092e-06   |Residual|: 2.654e-04   |deigs|: 1.004e-04  t[s]:  13839.15
	Linear fluid (dielectric constant: 78.4, screening length: 5.74355 Bohr) occupying 0.718412 of unit cell:	Completed after 7 iterations at t[s]:  13840.57
	FillingsUpdate:  mu: -0.171191659  nElectrons: 521.000000
	Linear fluid (dielectric constant: 78.4, screening length: 5.74355 Bohr) occupying 0.718416 of unit cell:	Completed after 5 iterations at t[s]:  13907.58
SCF: Cycle: 109   F: -2321.143499093210721   dF: -1.920e-06   |Residual|: 1.831e-04   |deigs|: 1.044e-04  t[s]:  13909.16
	Linear fluid (dielectric constant: 78.4, screening length: 5.74355 Bohr) occupying 0.718412 of unit cell:	Completed after 3 iterations at t[s]:  13910.15
	FillingsUpdate:  mu: -0.171147898  nElectrons: 521.000000
	Linear fluid (dielectric constant: 78.4, screening length: 5.74355 Bohr) occupying 0.718413 of unit cell:	Completed after 3 iterations at t[s]:  13978.33
SCF: Cycle: 110   F: -2321.143500109939851   dF: -1.017e-06   |Residual|: 1.100e-04   |deigs|: 4.645e-05  t[s]:  13979.93
	Linear fluid (dielectric constant: 78.4, screening length: 5.74355 Bohr) occupying 0.718412 of unit cell:	Completed after 4 iterations at t[s]:  13981.10
	FillingsUpdate:  mu: -0.171171955  nElectrons: 521.000000
	Linear fluid (dielectric constant: 78.4, screening length: 5.74355 Bohr) occupying 0.718414 of unit cell:	Completed after 4 iterations at t[s]:  14048.60
SCF: Cycle: 111   F: -2321.143499711701224   dF: +3.982e-07   |Residual|: 1.429e-04   |deigs|: 2.630e-05  t[s]:  14050.27
	Linear fluid (dielectric constant: 78.4, screening length: 5.74355 Bohr) occupying 0.718411 of unit cell:	Completed after 4 iterations at t[s]:  14051.45
	FillingsUpdate:  mu: -0.171142229  nElectrons: 521.000000
[...]
	FillingsUpdate:  mu: -0.171125073  nElectrons: 521.000000
	Linear fluid (dielectric constant: 78.4, screening length: 5.74355 Bohr) occupying 0.718411 of unit cell:	Completed after 4 iterations at t[s]:  19714.58
SCF: Cycle: 173   F: -2321.143498659326724   dF: -4.076e-07   |Residual|: 2.436e-04   |deigs|: 3.678e-05  t[s]:  19716.30
	Linear fluid (dielectric constant: 78.4, screening length: 5.74355 Bohr) occupying 0.718414 of unit cell:	Completed after 2 iterations at t[s]:  19717.27
	FillingsUpdate:  mu: -0.171179005  nElectrons: 521.000000
	Linear fluid (dielectric constant: 78.4, screening length: 5.74355 Bohr) occupying 0.718415 of unit cell:	Completed after 5 iterations at t[s]:  19811.37
SCF: Cycle: 174   F: -2321.143498743313557   dF: -8.399e-08   |Residual|: 2.286e-04   |deigs|: 5.638e-05  t[s]:  19812.95
	Linear fluid (dielectric constant: 78.4, screening length: 5.74355 Bohr) occupying 0.718414 of unit cell:	Completed after 2 iterations at t[s]:  19813.84
	FillingsUpdate:  mu: -0.171102362  nElectrons: 521.000000
	Linear fluid (dielectric constant: 78.4, screening length: 5.74355 Bohr) occupying 0.718410 of unit cell:	Completed after 6 iterations at t[s]:  19920.54
SCF: Cycle: 175   F: -2321.143497675255276   dF: +1.068e-06   |Residual|: 2.784e-04   |deigs|: 8.014e-05  t[s]:  19922.13
	Linear fluid (dielectric constant: 78.4, screening length: 5.74355 Bohr) occupying 0.718413 of unit cell:	Completed after 3 iterations at t[s]:  19923.12
	FillingsUpdate:  mu: -0.171236557  nElectrons: 521.000000
	Linear fluid (dielectric constant: 78.4, screening length: 5.74355 Bohr) occupying 0.718419 of unit cell:	Completed after 7 iterations at t[s]:  20024.07
SCF: Cycle: 176   F: -2321.143495885944958   dF: +1.789e-06   |Residual|: 3.326e-04   |deigs|: 1.396e-04  t[s]:  20025.57
	Linear fluid (dielectric constant: 78.4, screening length: 5.74355 Bohr) occupying 0.718414 of unit cell:	Completed after 7 iterations at t[s]:  20026.98
	FillingsUpdate:  mu: -0.171090845  nElectrons: 521.000000
	Linear fluid (dielectric constant: 78.4, screening length: 5.74355 Bohr) occupying 0.718409 of unit cell:	Completed after 8 iterations at t[s]:  20114.90
SCF: Cycle: 177   F: -2321.143495830099255   dF: +5.585e-08   |Residual|: 3.010e-04   |deigs|: 1.517e-04  t[s]:  20116.47
	Linear fluid (dielectric constant: 78.4, screening length: 5.74355 Bohr) occupying 0.718412 of unit cell:	Completed after 7 iterations at t[s]:  20117.93
	FillingsUpdate:  mu: -0.171179980  nElectrons: 521.000000
	Linear fluid (dielectric constant: 78.4, screening length: 5.74355 Bohr) occupying 0.718415 of unit cell:	Completed after 3 iterations at t[s]:  20223.39
SCF: Cycle: 178   F: -2321.143498351796097   dF: -2.522e-06   |Residual|: 2.272e-04   |deigs|: 9.456e-05  t[s]:  20224.99
	Linear fluid (dielectric constant: 78.4, screening length: 5.74355 Bohr) occupying 0.718412 of unit cell:	Completed after 3 iterations at t[s]:  20225.98
	FillingsUpdate:  mu: -0.171138979  nElectrons: 521.000000
	Linear fluid (dielectric constant: 78.4, screening length: 5.74355 Bohr) occupying 0.718411 of unit cell:	Completed after 3 iterations at t[s]:  20326.50
SCF: Cycle: 179   F: -2321.143499557719679   dF: -1.206e-06   |Residual|: 2.160e-04   |deigs|: 4.479e-05  t[s]:  20328.07
	Linear fluid (dielectric constant: 78.4, screening length: 5.74355 Bohr) occupying 0.718412 of unit cell:	Completed after 4 iterations at t[s]:  20329.22
	FillingsUpdate:  mu: -0.171170428  nElectrons: 521.000000
	Linear fluid (dielectric constant: 78.4, screening length: 5.74355 Bohr) occupying 0.718414 of unit cell:	Completed after 3 iterations at t[s]:  20428.93
SCF: Cycle: 180   F: -2321.143499638335470   dF: -8.062e-08   |Residual|: 1.786e-04   |deigs|: 3.361e-05  t[s]:  20430.69
	Linear fluid (dielectric constant: 78.4, screening length: 5.74355 Bohr) occupying 0.718411 of unit cell:	Completed after 3 iterations at t[s]:  20431.73
	FillingsUpdate:  mu: -0.171130195  nElectrons: 521.000000
	Linear fluid (dielectric constant: 78.4, screening length: 5.74355 Bohr) occupying 0.718411 of unit cell:	Completed after 4 iterations at t[s]:  20539.59
SCF: Cycle: 181   F: -2321.143499543879443   dF: +9.446e-08   |Residual|: 1.948e-04   |deigs|: 4.288e-05  t[s]:  20541.23
	Linear fluid (dielectric constant: 78.4, screening length: 5.74355 Bohr) occupying 0.718413 of unit cell:	Completed after 2 iterations at t[s]:  20542.15
	FillingsUpdate:  mu: -0.171208405  nElectrons: 521.000000
	Linear fluid (dielectric constant: 78.4, screening length: 5.74355 Bohr) occupying 0.718417 of unit cell:	Completed after 5 iterations at t[s]:  20648.22
SCF: Cycle: 182   F: -2321.143497745468721   dF: +1.798e-06   |Residual|: 2.516e-04   |deigs|: 8.322e-05  t[s]:  20649.89
	Linear fluid (dielectric constant: 78.4, screening length: 5.74355 Bohr) occupying 0.718413 of unit cell:	Completed after 3 iterations at t[s]:  20650.91
	FillingsUpdate:  mu: -0.171051929  nElectrons: 521.000000
	Linear fluid (dielectric constant: 78.4, screening length: 5.74355 Bohr) occupying 0.718405 of unit cell:	Completed after 8 iterations at t[s]:  20745.83
SCF: Cycle: 183   F: -2321.143494261595151   dF: +3.484e-06   |Residual|: 3.807e-04   |deigs|: 1.638e-04  t[s]:  20747.68
	Linear fluid (dielectric constant: 78.4, screening length: 5.74355 Bohr) occupying 0.718413 of unit cell:	Completed after 8 iterations at t[s]:  20749.33
	FillingsUpdate:  mu: -0.171181783  nElectrons: 521.000000
	Linear fluid (dielectric constant: 78.4, screening length: 5.74355 Bohr) occupying 0.718416 of unit cell:	Completed after 4 iterations at t[s]:  20817.25
SCF: Cycle: 184   F: -2321.143498416617149   dF: -4.155e-06   |Residual|: 2.045e-04   |deigs|: 1.348e-04  t[s]:  20818.77
	Linear fluid (dielectric constant: 78.4, screening length: 5.74355 Bohr) occupying 0.718412 of unit cell:	Completed after 4 iterations at t[s]:  20819.95
	FillingsUpdate:  mu: -0.171152761  nElectrons: 521.000000
	Linear fluid (dielectric constant: 78.4, screening length: 5.74355 Bohr) occupying 0.718413 of unit cell:	Completed after 3 iterations at t[s]:  20893.65
SCF: Cycle: 185   F: -2321.143499719897136   dF: -1.303e-06   |Residual|: 1.984e-04   |deigs|: 3.367e-05  t[s]:  20895.23
	Linear fluid (dielectric constant: 78.4, screening length: 5.74355 Bohr) occupying 0.718410 of unit cell:	Completed after 3 iterations at t[s]:  20896.26
	FillingsUpdate:  mu: -0.171150027  nElectrons: 521.000000
	Linear fluid (dielectric constant: 78.4, screening length: 5.74355 Bohr) occupying 0.718413 of unit cell:	Completed after 2 iterations at t[s]:  20970.88
SCF: Cycle: 186   F: -2321.143500205429973   dF: -4.855e-07   |Residual|: 1.204e-04   |deigs|: 6.054e-06  t[s]:  20972.54
	Linear fluid (dielectric constant: 78.4, screening length: 5.74355 Bohr) occupying 0.718409 of unit cell:	Completed after 2 iterations at t[s]:  20973.53
	FillingsUpdate:  mu: -0.171152326  nElectrons: 521.000000
	Linear fluid (dielectric constant: 78.4, screening length: 5.74355 Bohr) occupying 0.718413 of unit cell:	Completed after 3 iterations at t[s]:  21060.17
SCF: Cycle: 187   F: -2321.143500047196540   dF: +1.582e-07   |Residual|: 1.238e-04   |deigs|: 1.330e-05  t[s]:  21061.75
	Linear fluid (dielectric constant: 78.4, screening length: 5.74355 Bohr) occupying 0.718411 of unit cell:	Completed after 1 iterations at t[s]:  21062.59
	FillingsUpdate:  mu: -0.171156512  nElectrons: 521.000000
	Linear fluid (dielectric constant: 78.4, screening length: 5.74355 Bohr) occupying 0.718413 of unit cell:	Completed after 5 iterations at t[s]:  21169.46
SCF: Cycle: 188   F: -2321.143496508988392   dF: +3.538e-06   |Residual|: 3.110e-04   |deigs|: 2.884e-05  t[s]:  21171.09
	Linear fluid (dielectric constant: 78.4, screening length: 5.74355 Bohr) occupying 0.718411 of unit cell:	Completed after 5 iterations at t[s]:  21172.34
	FillingsUpdate:  mu: -0.171140907  nElectrons: 521.000000
	Linear fluid (dielectric constant: 78.4, screening length: 5.74355 Bohr) occupying 0.718411 of unit cell:	Completed after 3 iterations at t[s]:  21240.25
SCF: Cycle: 189   F: -2321.143500051976389   dF: -3.543e-06   |Residual|: 1.466e-04   |deigs|: 2.993e-05  t[s]:  21241.88
	Linear fluid (dielectric constant: 78.4, screening length: 5.74355 Bohr) occupying 0.718411 of unit cell:	Completed after 3 iterations at t[s]:  21242.90
	FillingsUpdate:  mu: -0.171164399  nElectrons: 521.000000
	Linear fluid (dielectric constant: 78.4, screening length: 5.74355 Bohr) occupying 0.718414 of unit cell:	Completed after 3 iterations at t[s]:  21310.84
SCF: Cycle: 190   F: -2321.143499942364542   dF: +1.096e-07   |Residual|: 1.101e-04   |deigs|: 2.878e-05  t[s]:  21312.58
	Linear fluid (dielectric constant: 78.4, screening length: 5.74355 Bohr) occupying 0.718411 of unit cell:	Completed after 4 iterations at t[s]:  21313.76
	FillingsUpdate:  mu: -0.171134338  nElectrons: 521.000000
	Linear fluid (dielectric constant: 78.4, screening length: 5.74355 Bohr) occupying 0.718411 of unit cell:	Completed after 3 iterations at t[s]:  21400.96
SCF: Cycle: 191   F: -2321.143500074125768   dF: -1.318e-07   |Residual|: 1.089e-04   |deigs|: 3.226e-05  t[s]:  21402.72
	Linear fluid (dielectric constant: 78.4, screening length: 5.74355 Bohr) occupying 0.718411 of unit cell:	Completed after 3 iterations at t[s]:  21403.75
	FillingsUpdate:  mu: -0.171178853  nElectrons: 521.000000
	Linear fluid (dielectric constant: 78.4, screening length: 5.74355 Bohr) occupying 0.718415 of unit cell:	Completed after 4 iterations at t[s]:  21496.97
SCF: Cycle: 192   F: -2321.143499643749692   dF: +4.304e-07   |Residual|: 1.322e-04   |deigs|: 4.742e-05  t[s]:  21498.79
	Linear fluid (dielectric constant: 78.4, screening length: 5.74355 Bohr) occupying 0.718412 of unit cell:	Completed after 4 iterations at t[s]:  21499.88
	FillingsUpdate:  mu: -0.171104380  nElectrons: 521.000000
	Linear fluid (dielectric constant: 78.4, screening length: 5.74355 Bohr) occupying 0.718409 of unit cell:	Completed after 5 iterations at t[s]:  21593.94
SCF: Cycle: 193   F: -2321.143498999036183   dF: +6.447e-07   |Residual|: 1.871e-04   |deigs|: 7.830e-05  t[s]:  21595.53
	Linear fluid (dielectric constant: 78.4, screening length: 5.74355 Bohr) occupying 0.718412 of unit cell:	Completed after 3 iterations at t[s]:  21596.51
	FillingsUpdate:  mu: -0.171218497  nElectrons: 521.000000
	Linear fluid (dielectric constant: 78.4, screening length: 5.74355 Bohr) occupying 0.718418 of unit cell:	Completed after 6 iterations at t[s]:  21691.46
SCF: Cycle: 194   F: -2321.143498203680792   dF: +7.954e-07   |Residual|: 2.179e-04   |deigs|: 1.183e-04  t[s]:  21693.14
	Linear fluid (dielectric constant: 78.4, screening length: 5.74355 Bohr) occupying 0.718411 of unit cell:	Completed after 3 iterations at t[s]:  21694.20
	FillingsUpdate:  mu: -0.171050453  nElectrons: 521.000000
	Linear fluid (dielectric constant: 78.4, screening length: 5.74355 Bohr) occupying 0.718405 of unit cell:	Completed after 8 iterations at t[s]:  21800.61
SCF: Cycle: 195   F: -2321.143495267444450   dF: +2.936e-06   |Residual|: 3.362e-04   |deigs|: 1.746e-04  t[s]:  21802.28
	Linear fluid (dielectric constant: 78.4, screening length: 5.74355 Bohr) occupying 0.718412 of unit cell:	Completed after 8 iterations at t[s]:  21803.80
	FillingsUpdate:  mu: -0.171182361  nElectrons: 521.000000
	Linear fluid (dielectric constant: 78.4, screening length: 5.74355 Bohr) occupying 0.718416 of unit cell:	Completed after 3 iterations at t[s]:  21871.11
SCF: Cycle: 196   F: -2321.143499802558381   dF: -4.535e-06   |Residual|: 1.235e-04   |deigs|: 1.374e-04  t[s]:  21872.95
	Linear fluid (dielectric constant: 78.4, screening length: 5.74355 Bohr) occupying 0.718412 of unit cell:	Completed after 3 iterations at t[s]:  21874.02
	FillingsUpdate:  mu: -0.171158807  nElectrons: 521.000000
	Linear fluid (dielectric constant: 78.4, screening length: 5.74355 Bohr) occupying 0.718413 of unit cell:	Completed after 0 iterations at t[s]:  21941.56
SCF: Cycle: 197   F: -2321.143500460723317   dF: -6.582e-07   |Residual|: 3.403e-05   |deigs|: 2.810e-05  t[s]:  21943.19
	Linear fluid (dielectric constant: 78.4, screening length: 5.74355 Bohr) occupying 0.718413 of unit cell:	Completed after 0 iterations at t[s]:  21943.82
	FillingsUpdate:  mu: -0.171158728  nElectrons: 521.000000
	Linear fluid (dielectric constant: 78.4, screening length: 5.74355 Bohr) occupying 0.718414 of unit cell:	Completed after 0 iterations at t[s]:  22017.00
SCF: Cycle: 198   F: -2321.143500462649627   dF: -1.926e-09   |Residual|: 3.359e-05   |deigs|: 1.445e-06  t[s]:  22018.82
	Linear fluid (dielectric constant: 78.4, screening length: 5.74355 Bohr) occupying 0.718413 of unit cell:	Completed after 0 iterations at t[s]:  22019.41
	FillingsUpdate:  mu: -0.171158678  nElectrons: 521.000000
	Linear fluid (dielectric constant: 78.4, screening length: 5.74355 Bohr) occupying 0.718414 of unit cell:	Completed after 0 iterations at t[s]:  22126.27
SCF: Cycle: 199   F: -2321.143500463307646   dF: -6.580e-10   |Residual|: 3.425e-05   |deigs|: 8.898e-07  t[s]:  22127.95
SCF: Converged (|Delta E|<1.000000e-08 for 2 iters).

Single-point solvation energy estimate, DeltaF = -0.001077022337540

# Ionic positions in lattice coordinates:
ion Bi  -0.000000000000000   0.950811199995299   0.599917231134753 0
ion Bi   0.500000000000000   0.943833559572336   0.600243379435410 0
ion Bi  -0.000000000000000   0.066477825121473   0.401478651613225 0
ion Bi   0.500000000000000   0.064468799784486   0.403161647818031 0
ion Bi   0.249544355230703   0.800606788784997   0.358841476677280 0
ion Bi   0.750455644769297   0.800606788784997   0.358841476677280 0
ion Bi   0.254676563479866   0.341889323693043   0.438409804079917 0
ion Bi   0.745323436520134   0.341889323693043   0.438409804079917 0
ion Bi  -0.000000000000000   0.177016485012287   0.572173618090924 0
ion Bi   0.500000000000000   0.166430721271229   0.571531665515973 0
ion Bi  -0.000000000000000   0.624603169343086   0.489128516403632 0
ion Bi   0.500000000000000   0.620494791039581   0.488535956771267 0
ion Bi  -0.000000000000000   0.842879441535665   0.430695970810603 0
ion Bi   0.500000000000000   0.840569850680421   0.430767287999651 0
ion Bi  -0.000000000000000   0.526860322730652   0.312537384379226 0
ion Bi   0.500000000000000   0.529626043288920   0.312269249029064 0
ion Bi   0.247590593608177   0.119798116961669   0.471835097725017 0
ion Bi   0.752409406391824   0.119798116961669   0.471835097725017 0
ion Bi   0.250648463032025   0.669271054733876   0.559214377099631 0
ion Bi   0.749351536967976   0.669271054733876   0.559214377099631 0
ion Bi  -0.000000000000000   0.392860710409710   0.507929457609111 0
ion Bi   0.500000000000000   0.391259229335446   0.509500808937700 0
ion Bi   0.249000344553670   0.893882360755171   0.530782890907433 0
ion Bi   0.750999655446330   0.893882360755171   0.530782890907433 0
ion Bi   0.258952685828874   0.210433961542309   0.646712082104776 0
ion Bi   0.741047314171126   0.210433961542309   0.646712082104776 0
ion Bi   0.225185405938936   0.423476925560564   0.607672134099761 0
ion Bi   0.774814594061064   0.423476925560564   0.607672134099761 0
ion Bi   0.250309752466177   0.577126659486277   0.384139919952052 0
ion Bi   0.749690247533823   0.577126659486277   0.384139919952052 0
ion Bi  -0.000000000000000   0.482812002099492   0.684954583411206 0
ion I  -0.000000000000000   0.280744538029175   0.736090034554661 0
ion I   0.500000000000000   0.241712885501255   0.730149123431766 0
ion I  -0.000000000000000   0.736337234528485   0.266610158421884 0
ion I   0.500000000000000   0.737756640383070   0.266611810556820 0
ion I  -0.000000000000000   0.298045538063411   0.340358947720374 0
ion I   0.500000000000000   0.299689709168692   0.343107607851231 0
ion I  -0.000000000000000   0.715189508198123   0.658992588014831 0
ion I   0.500000000000000   0.518948741871891   0.659201034196907 0


# Forces in Lattice coordinates:
force Bi   0.000000000000000  -0.016431224835064   0.115352191870567 0
force Bi   0.000000000000000  -0.007775422241710   0.097675527666567 0
force Bi   0.000000000000000   0.012938281152449  -0.094100593284315 0
force Bi   0.000000000000000   0.024899805097818  -0.064408041288722 0
force Bi   0.002390133241637   0.008008902957612  -0.077392024420035 0
force Bi  -0.002390133241637   0.008008902957612  -0.077392024420035 0
force Bi   0.001911912243892  -0.013590562020739  -0.057564551055232 0
force Bi  -0.001911912243892  -0.013590562020739  -0.057564551055232 0
force Bi   0.000000000000000  -0.022913272830835   0.003517297782446 0
force Bi   0.000000000000000   0.006489832024258   0.009107856005183 0
force Bi   0.000000000000000  -0.002404162616801  -0.035675269087184 0
force Bi   0.000000000000000  -0.005525104883720  -0.056596921373761 0
force Bi   0.000000000000000   0.008876037696361   0.027775725021169 0
force Bi   0.000000000000000   0.011479379337686   0.038954936800518 0
force Bi   0.000000000000000  -0.019560978388144  -0.063084591115404 0
force Bi   0.000000000000000  -0.033747023171385  -0.072400682629251 0
force Bi  -0.001043341039062  -0.007230685107855   0.005764937051836 0
force Bi   0.001043341039062  -0.007230685107855   0.005764937051836 0
force Bi   0.002578909109176   0.002191315169137   0.126331081840075 0
force Bi  -0.002578909109176   0.002191315169137   0.126331081840075 0
force Bi   0.000000000000000  -0.000614860616580   0.037626594985947 0
force Bi   0.000000000000000  -0.007559529482476   0.053048195170441 0
force Bi   0.003751294153938  -0.008425244918161   0.001467857375015 0
force Bi  -0.003751294153938  -0.008425244918161   0.001467857375015 0
force Bi  -0.028766585805046  -0.029374665072248   0.001221217861549 0
force Bi   0.028766585805046  -0.029374665072248   0.001221217861549 0
force Bi  -0.014392402444909  -0.012099580620292   0.001657032518910 0
force Bi   0.014392402444909  -0.012099580620292   0.001657032518910 0
force Bi  -0.002857688289608   0.011578534495297  -0.006544757179435 0
force Bi   0.002857688289608   0.011578534495297  -0.006544757179435 0
force Bi   0.000000000000000   0.055778124569290   0.069226073348052 0
force I   0.000000000000000  -0.030405790300217   0.077910453155003 0
force I   0.000000000000000  -0.007023102437123   0.184738944894395 0
force I   0.000000000000000   0.027099482108305  -0.090445760717480 0
force I   0.000000000000000   0.032284464176833  -0.082049299518926 0
force I   0.000000000000000  -0.008104028486720  -0.018773990421830 0
force I   0.000000000000000   0.001623866922250  -0.044428775617730 0
force I   0.000000000000000  -0.002625044456670   0.023082931204522 0
force I   0.000000000000000   0.022791629157900   0.051103255367698 0

# Energy components:
   A_diel =       -0.0067615273675004
   Eewald =    21934.2248737458830874
       EH =    23961.1256879948850838
     Eloc =   -48813.0899624817029689
      Enl =      733.9073870129266197
      Exc =    -1194.9875148167211591
 Exc_core =      813.2911255494694842
       KE =      244.4253414535789943
-------------------------------------
     Etot =    -2321.1098230690495257
       TS =        0.0336773942580893
-------------------------------------
        F =    -2321.1435004633076460

IonicMinimize: Iter:   0  F: -2321.143500463307646  |grad|_K:  0.000e+00  t[s]:  22140.32
IonicMinimize: Converged (|grad|_K<1.000000e-04).

#--- Lowdin population analysis ---
# oxidation-state Bi +0.134 +0.107 +0.134 +0.129 +0.227 +0.227 +0.203 +0.203 -0.086 -0.025 +0.062 +0.021 -0.038 -0.033 +0.344 +0.344 +0.056 +0.056 +0.116 +0.116 -0.036 -0.017 +0.065 +0.065 +0.260 +0.260 +0.186 +0.186 +0.007 +0.007 +0.370
# oxidation-state I -0.304 -0.371 -0.317 -0.302 -0.331 -0.304 -0.359 -0.170


Dumping 'NbTe2.fillings' ... done
Dumping 'NbTe2.wfns' ... done
Dumping 'NbTe2.fluidState' ... done
Dumping 'NbTe2.eigenvals' ... done
End date and time: Tue Jul  7 10:41:49 2020  (Duration: 0-6:09:24.13)
Done!
