
*************** JDFTx 1.5.0  ***************

Start date and time: Fri Jul 24 21:50:40 2020
Executable jdftx_gpu with command-line: -i Neutral.in -o Neutral.out
Running on hosts (process indices):  amax (0-5)
Divided in process groups (process indices):  0 (0)  1 (1)  2 (2)  3 (3)  4 (4)  5 (5)
gpuInit: Found compatible cuda device 0 'Tesla K80'
gpuInit: Found compatible cuda device 1 'Tesla K80'
gpuInit: Found compatible cuda device 2 'Tesla K80'
gpuInit: Found compatible cuda device 3 'Tesla K80'
gpuInit: Found compatible cuda device 4 'Tesla K80'
gpuInit: Found compatible cuda device 5 'Tesla K80'
gpuInit: Selected device 0
Resource initialization completed at t[s]:      9.67
Run totals: 6 processes, 24 threads, 6 GPUs


Input parsed successfully to the following command list (including defaults):

basis kpoint-dependent
cache-projectors no
coords-type Lattice
core-overlap-check none
coulomb-interaction Slab 001
coulomb-truncation-embed 0 0 0.5
davidson-band-ratio 1.1
dump End State
dump-name NbTe2.$VAR
elec-cutoff 20 100
elec-eigen-algo Davidson
elec-ex-corr gga-PBE
elec-smearing Gauss 0.0073499
electronic-minimize  \
	dirUpdateScheme      FletcherReeves \
	linminMethod         DirUpdateRecommended \
	nIterations          500 \
	history              15 \
	knormThreshold       0 \
	energyDiffThreshold  1e-08 \
	nEnergyDiff          2 \
	alphaTstart          1 \
	alphaTmin            1e-10 \
	updateTestStepSize   yes \
	alphaTreduceFactor   0.1 \
	alphaTincreaseFactor 3 \
	nAlphaAdjustMax      3 \
	wolfeEnergy          0.0001 \
	wolfeGradient        0.9 \
	fdTest               no
exchange-regularization WignerSeitzTruncated
fluid LinearPCM 298.000000 1.013250
fluid-anion F- 1 MeanFieldLJ \
	epsBulk 1 \
	pMol 0 \
	epsInf 1 \
	Pvap 0 \
	sigmaBulk 0 \
	Rvdw 2.24877 \
	Res 0 \
	tauNuc 343133
fluid-cation Na+ 1 MeanFieldLJ \
	epsBulk 1 \
	pMol 0 \
	epsInf 1 \
	Pvap 0 \
	sigmaBulk 0 \
	Rvdw 2.19208 \
	Res 0 \
	tauNuc 343133
fluid-ex-corr lda-TF lda-PZ
fluid-gummel-loop 10 1.000000e-05
fluid-minimize  \
	dirUpdateScheme      PolakRibiere \
	linminMethod         DirUpdateRecommended \
	nIterations          400 \
	history              15 \
	knormThreshold       1e-11 \
	energyDiffThreshold  0 \
	nEnergyDiff          2 \
	alphaTstart          1 \
	alphaTmin            1e-10 \
	updateTestStepSize   yes \
	alphaTreduceFactor   0.1 \
	alphaTincreaseFactor 3 \
	nAlphaAdjustMax      6 \
	wolfeEnergy          0.0001 \
	wolfeGradient        0.9 \
	fdTest               no
fluid-solvent H2O 55.338 ScalarEOS \
	epsBulk 78.4 \
	pMol 0.92466 \
	epsInf 1.77 \
	Pvap 1.06736e-10 \
	sigmaBulk 4.62e-05 \
	Rvdw 2.61727 \
	Res 1.42 \
	tauNuc 343133 \
	poleEl 15 7 1
forces-output-coords Positions
initial-state NbTe2.$VAR
ion Cu   0.341903888805444   0.262475907019416   0.529467045178285 0
ion Cu   0.841903888805444   0.262475907019416   0.529467045178285 0
ion Cu   0.341903888805444   0.762475907019416   0.529467045178285 0
ion Cu   0.841903888805444   0.762475907019416   0.529467045178285 0
ion Cu   0.091881541581367   0.487624200534802   0.529444189678327 0
ion Cu   0.591881541581367   0.487624200534802   0.529444189678327 0
ion Cu   0.091881541581367   0.987624200534802   0.529444189678327 0
ion Cu   0.591881541581367   0.987624200534802   0.529444189678327 0
ion Cu   0.158093763639779   0.237519427018993   0.470533241902730 0
ion Cu   0.658093763639779   0.237519427018993   0.470533241902730 0
ion Cu   0.158093763639779   0.737519427018993   0.470533241902730 0
ion Cu   0.658093763639779   0.737519427018993   0.470533241902730 0
ion Cu   0.408118729696389   0.012371713402190   0.470555501504694 0
ion Cu   0.908118729696389   0.012371713402190   0.470555501504694 0
ion Cu   0.408118729696389   0.512371713402190   0.470555501504694 0
ion Cu   0.908118729696389   0.512371713402190   0.470555501504694 0
ion Te   0.280506919867320   0.103072306969202   0.586402205062837 0
ion Te   0.780506919867320   0.103072306969202   0.586402205062837 0
ion Te   0.280506919867320   0.603072306969202   0.586402205062837 0
ion Te   0.780506919867320   0.603072306969202   0.586402205062837 0
ion Te   0.219512541157948   0.396929508490296   0.413601533328775 0
ion Te   0.719512541157947   0.396929508490296   0.413601533328775 0
ion Te   0.219512541157948   0.896929508490296   0.413601533328775 0
ion Te   0.719512541157947   0.896929508490296   0.413601533328775 0
ion Te   0.469538226372038   0.352988679974414   0.413644886986710 0
ion Te   0.969538226372038   0.352988679974414   0.413644886986710 0
ion Te   0.469538226372038   0.852988679974414   0.413644886986710 0
ion Te   0.969538226372038   0.852988679974414   0.413644886986710 0
ion Te   0.030452433063295   0.147008051728060   0.586349162571245 0
ion Te   0.530452433063295   0.147008051728060   0.586349162571245 0
ion Te   0.030452433063295   0.647008051728060   0.586349162571245 0
ion Te   0.530452433063295   0.647008051728060   0.586349162571245 0
ion O   0.303593960936857   0.074700203388704   0.486180413905161 0
ion O   0.803593960936857   0.074700203388704   0.486180413905161 0
ion O   0.303593960936857   0.574700203388704   0.486180413905161 0
ion O   0.803593960936857   0.574700203388704   0.486180413905161 0
ion O   0.267792988048350   0.294862221355775   0.439773821376742 0
ion O   0.767792988048350   0.294862221355775   0.439773821376742 0
ion O   0.267792988048350   0.794862221355775   0.439773821376742 0
ion O   0.767792988048350   0.794862221355775   0.439773821376742 0
ion O   0.400160548106583   0.183093230065138   0.590509911528552 0
ion O   0.900160548106583   0.183093230065138   0.590509911528552 0
ion O   0.400160548106583   0.683093230065138   0.590509911528552 0
ion O   0.900160548106583   0.683093230065138   0.590509911528552 0
ion O   0.482174381015276   0.044918631735436   0.560247178498602 0
ion O   0.982174381015276   0.044918631735436   0.560247178498602 0
ion O   0.482174381015276   0.544918631735436   0.560247178498602 0
ion O   0.982174381015276   0.544918631735436   0.560247178498602 0
ion O   0.349833859729915   0.433011548392918   0.409483493433448 0
ion O   0.849833859729915   0.433011548392918   0.409483493433448 0
ion O   0.349833859729915   0.933011548392918   0.409483493433448 0
ion O   0.849833859729915   0.933011548392918   0.409483493433448 0
ion O   0.150160806761382   0.066992974400991   0.590516830908329 0
ion O   0.650160806761382   0.066992974400991   0.590516830908329 0
ion O   0.150160806761382   0.566992974400991   0.590516830908329 0
ion O   0.650160806761382   0.566992974400991   0.590516830908329 0
ion O   0.446429136808484   0.324840510892199   0.513943755456672 0
ion O   0.946429136808484   0.324840510892199   0.513943755456672 0
ion O   0.446429136808484   0.824840510892199   0.513943755456672 0
ion O   0.946429136808484   0.824840510892199   0.513943755456672 0
ion O   0.196409864219235   0.425297758176090   0.513821134494370 0
ion O   0.696409864219235   0.425297758176090   0.513821134494370 0
ion O   0.196409864219235   0.925297758176090   0.513821134494370 0
ion O   0.696409864219235   0.925297758176090   0.513821134494370 0
ion O   0.017815972524453   0.455085533754099   0.439751448458435 0
ion O   0.517815972524454   0.455085533754099   0.439751448458435 0
ion O   0.017815972524453   0.955085533754100   0.439751448458435 0
ion O   0.517815972524454   0.955085533754100   0.439751448458435 0
ion O   0.232212946739429   0.205144852302428   0.560231205739816 0
ion O   0.732212946739429   0.205144852302428   0.560231205739816 0
ion O   0.232212946739429   0.705144852302428   0.560231205739816 0
ion O   0.732212946739429   0.705144852302428   0.560231205739816 0
ion O   0.053565477716424   0.175154863741222   0.486054928948861 0
ion O   0.553565477716424   0.175154863741222   0.486054928948861 0
ion O   0.053565477716424   0.675154863741222   0.486054928948861 0
ion O   0.553565477716424   0.675154863741222   0.486054928948861 0
ion O   0.099841973210041   0.316907832657621   0.409488007518908 0
ion O   0.599841973210041   0.316907832657621   0.409488007518908 0
ion O   0.099841973210041   0.816907832657621   0.409488007518908 0
ion O   0.599841973210041   0.816907832657621   0.409488007518908 0
ion-species GBRV/$ID_pbe.uspp
ion-width Ecut
ionic-minimize  \
	dirUpdateScheme      L-BFGS \
	linminMethod         DirUpdateRecommended \
	nIterations          0 \
	history              15 \
	knormThreshold       0.0001 \
	energyDiffThreshold  1e-06 \
	nEnergyDiff          2 \
	alphaTstart          1 \
	alphaTmin            1e-10 \
	updateTestStepSize   yes \
	alphaTreduceFactor   0.1 \
	alphaTincreaseFactor 3 \
	nAlphaAdjustMax      3 \
	wolfeEnergy          0.0001 \
	wolfeGradient        0.9 \
	fdTest               no
kpoint   0.000000000000   0.000000000000   0.000000000000  1.00000000000000
kpoint-folding 2 2 1 
latt-move-scale 1 1 1
latt-scale 1 1 1 
lattice Triclinic 27.7129 32.6528 33.5201 90 90.4153 90
lattice-minimize  \
	dirUpdateScheme      L-BFGS \
	linminMethod         DirUpdateRecommended \
	nIterations          0 \
	history              15 \
	knormThreshold       0 \
	energyDiffThreshold  1e-06 \
	nEnergyDiff          2 \
	alphaTstart          1 \
	alphaTmin            1e-10 \
	updateTestStepSize   yes \
	alphaTreduceFactor   0.1 \
	alphaTincreaseFactor 3 \
	nAlphaAdjustMax      3 \
	wolfeEnergy          0.0001 \
	wolfeGradient        0.9 \
	fdTest               no
lcao-params -1 1e-06 0.0073499
pcm-variant CANDLE
spintype no-spin
subspace-rotation-factor 1 yes
symmetries automatic
symmetry-threshold 0.0001



---------- Setting up symmetries ----------

Found 4 point-group symmetries of the bravais lattice
Found 4 space-group symmetries with basis
Applied RMS atom displacement 3.5587e-15 bohrs to make symmetries exact.

---------- Initializing the Grid ----------
R = 
[    27.7129          0  -0.242964  ]
[          0    32.6528          0  ]
[          0          0    33.5193  ]
unit cell volume = 30331.7
G =
[   0.226724         -0  0.0016434  ]
[          0   0.192424         -0  ]
[          0          0    0.18745  ]
Minimum fftbox size, Smin = [  128  148  152  ]
Chosen fftbox size, S = [  128  150  160  ]

---------- Initializing tighter grid for wavefunction operations ----------
R = 
[    27.7129          0  -0.242964  ]
[          0    32.6528          0  ]
[          0          0    33.5193  ]
unit cell volume = 30331.7
G =
[   0.226724         -0  0.0016434  ]
[          0   0.192424         -0  ]
[          0          0    0.18745  ]
Minimum fftbox size, Smin = [  112  132  136  ]
Chosen fftbox size, S = [  112  140  140  ]

---------- Exchange Correlation functional ----------
Initalized PBE GGA exchange.
Initalized PBE GGA correlation.

---------- Setting up pseudopotentials ----------
Width of ionic core gaussian charges (only for fluid interactions / plotting) set to 0.397384

Reading pseudopotential file '/home/guoxy/vasp/jdftx-1.5.0/build/pseudopotentials/GBRV/cu_pbe.uspp':
  Title: Cu.  Created by USPP 7.3.6 on 3-2-2014
  Reference state energy: -201.059491.  19 valence electrons in orbitals:
    |300>  occupation: 2  eigenvalue: -5.020764
    |310>  occupation: 6  eigenvalue: -3.445588
    |320>  occupation: 8  eigenvalue: -0.925168
    |400>  occupation: 2  eigenvalue: -0.567638
    |410>  occupation: 0  eigenvalue: -0.326154
  lMax: 2  lLocal: 3  QijEcut: 6
  6 projectors sampled on a log grid with 613 points:
    l: 0  eig: -5.020767  rCut: 1.4
    l: 0  eig: -0.567640  rCut: 1.4
    l: 1  eig: -3.445589  rCut: 1.55
    l: 1  eig: -0.326157  rCut: 1.55
    l: 2  eig: -0.925170  rCut: 1.5
    l: 2  eig: 1.500000  rCut: 1.5
  Partial core density with radius 0.8
  Transforming core density to a uniform radial grid of dG=0.02 with 1277 points.
  Transforming local potential to a uniform radial grid of dG=0.02 with 1277 points.
  Transforming nonlocal projectors to a uniform radial grid of dG=0.02 with 432 points.
  Transforming density augmentations to a uniform radial grid of dG=0.02 with 1277 points.
  Transforming atomic orbitals to a uniform radial grid of dG=0.02 with 432 points.
  Core radius for overlap checks: 1.55 bohrs.

Reading pseudopotential file '/home/guoxy/vasp/jdftx-1.5.0/build/pseudopotentials/GBRV/te_pbe.uspp':
  Title: Te.  Created by USPP 7.3.6 on 14-9-2013
  Reference state energy: -13.134220.  6 valence electrons in orbitals:
    |500>  occupation: 2  eigenvalue: -0.555231
    |510>  occupation: 4  eigenvalue: -0.218781
  lMax: 2  lLocal: 2  QijEcut: 5
  5 projectors sampled on a log grid with 723 points:
    l: 0  eig: -0.555229  rCut: 2.1
    l: 0  eig: 1.000000  rCut: 2.1
    l: 1  eig: -0.218780  rCut: 2.1
    l: 1  eig: 1.000000  rCut: 2.1
    l: 2  eig: 1.000000  rCut: 2.6
  Partial core density with radius 1.8
  Transforming core density to a uniform radial grid of dG=0.02 with 1277 points.
  Transforming local potential to a uniform radial grid of dG=0.02 with 1277 points.
  Transforming nonlocal projectors to a uniform radial grid of dG=0.02 with 432 points.
  Transforming density augmentations to a uniform radial grid of dG=0.02 with 1277 points.
  Transforming atomic orbitals to a uniform radial grid of dG=0.02 with 432 points.
  Core radius for overlap checks: 2.60 bohrs.

Reading pseudopotential file '/home/guoxy/vasp/jdftx-1.5.0/build/pseudopotentials/GBRV/o_pbe.uspp':
  Title: O.  Created by USPP 7.3.6 on 3-2-2014
  Reference state energy: -15.894388.  6 valence electrons in orbitals:
    |200>  occupation: 2  eigenvalue: -0.878823
    |210>  occupation: 4  eigenvalue: -0.332131
  lMax: 2  lLocal: 2  QijEcut: 6
  5 projectors sampled on a log grid with 511 points:
    l: 0  eig: -0.878823  rCut: 1.25
    l: 0  eig: 0.000000  rCut: 1.25
    l: 1  eig: -0.332132  rCut: 1.25
    l: 1  eig: 0.000000  rCut: 1.25
    l: 2  eig: 1.000000  rCut: 1.25
  Partial core density with radius 0.7
  Transforming core density to a uniform radial grid of dG=0.02 with 1277 points.
  Transforming local potential to a uniform radial grid of dG=0.02 with 1277 points.
  Transforming nonlocal projectors to a uniform radial grid of dG=0.02 with 432 points.
  Transforming density augmentations to a uniform radial grid of dG=0.02 with 1277 points.
  Transforming atomic orbitals to a uniform radial grid of dG=0.02 with 432 points.
  Core radius for overlap checks: 1.25 bohrs.

Initialized 3 species with 80 total atoms.

Folded 1 k-points by 2x2x1 to 4 k-points.

---------- Setting up k-points, bands, fillings ----------
No reducable k-points. 
Computing the number of bands and number of electrons
Calculating initial fillings.
nElectrons: 688.000000   nBands: 464   nStates: 4

----- Setting up reduced wavefunction bases (one per k-point) -----
average nbasis = 129578.250 , ideal nbasis = 129579.442

---------- Setting up coulomb interaction ----------
Fluid mode embedding: using embedded box, but periodic Coulomb kernel.
(Fluid response is responsible for (approximate) separation between periodic images.)
Setting up double-sized grid for truncated Coulomb potentials:
R = 
[    27.7129          0  -0.485927  ]
[          0    32.6528          0  ]
[          0          0    67.0385  ]
unit cell volume = 60663.5
G =
[   0.226724         -0  0.0016434  ]
[          0   0.192424         -0  ]
[          0          0   0.093725  ]
Chosen fftbox size, S = [  128  150  320  ]
Integer grid location selected as the embedding center:
   Grid: [  0  0  80  ]
   Lattice: [  0  0  0.5  ]
   Cartesian: [  -0.121482  0  16.7596  ]
Constructing Wigner-Seitz cell: 8 faces (6 quadrilaterals, 2 hexagons)
Range-separation parameter for embedded mesh potentials due to point charges: 0.588606 bohrs.

Initializing van der Waals corrections
	NOTE: vdW corrections apply only for interactions with fluid.
	Cu:  C6:  187.33 Eh-a0^6  R0: 2.952 a0
	Te:  C6:  550.54 Eh-a0^6  R0: 3.575 a0
	 O:  C6:   12.14 Eh-a0^6  R0: 2.536 a0

---------- Setting up ewald sum ----------
Optimum gaussian width for ewald sums = 7.551573 bohr.
Real space sum over 567 unit cells with max indices [  4  4  3  ]
Reciprocal space sum over 7905 terms with max indices [  7  8  15  ]

---------- Allocating electronic variables ----------
Initializing wave functions:  linear combination of atomic orbitals
Cu pseudo-atom occupations:   s ( 2 1 )  p ( 6 0 )  d ( 10 )
Te pseudo-atom occupations:   s ( 2 )  p ( 4 )
O pseudo-atom occupations:   s ( 2 )  p ( 4 )
	FillingsUpdate:  mu: -0.115154014  nElectrons: 688.000000
LCAOMinimize: Iter:   0  F: -3606.0489781615983702  |grad|_K:  2.304e-02  alpha:  1.000e+00
	FillingsUpdate:  mu: +1.769571916  nElectrons: 688.000000
LCAOMinimize: Iter:   1  F: -3847.9828586156777419  |grad|_K:  1.740e-02  alpha:  1.070e+00  linmin:  1.073e-02  cgtest: -1.729e+00  t[s]:     65.82
	FillingsUpdate:  mu: +0.662874344  nElectrons: 688.000000
LCAOMinimize: Iter:   2  F: -3927.4471642043986321  |grad|_K:  1.484e-02  alpha:  4.213e-01  linmin:  7.260e-02  cgtest: -7.492e-01  t[s]:     84.99
LCAOMinimize: 	Bad step direction: g.d > 0.
LCAOMinimize: 	Undoing step.
LCAOMinimize: 	Step failed: resetting search direction.
	FillingsUpdate:  mu: +0.662874344  nElectrons: 688.000000
LCAOMinimize: Iter:   3  F: -3927.4471642043986321  |grad|_K:  1.484e-02  alpha:  0.000e+00
	FillingsUpdate:  mu: +0.905683724  nElectrons: 688.000000
LCAOMinimize: Iter:   4  F: -3965.8773751429321237  |grad|_K:  1.209e-02  alpha:  1.477e-01  linmin: -4.364e-02  cgtest:  4.551e-01  t[s]:    123.62
	FillingsUpdate:  mu: +1.051658768  nElectrons: 688.000000
LCAOMinimize: Iter:   5  F: -3977.4880972047590149  |grad|_K:  1.483e-02  alpha:  7.653e-02  linmin:  3.080e-03  cgtest:  2.393e-01  t[s]:    145.86
	FillingsUpdate:  mu: +1.092005335  nElectrons: 688.000000
LCAOMinimize: Iter:   6  F: -3978.8173434790778629  |grad|_K:  1.905e-02  alpha:  2.905e-02  linmin:  1.899e-03  cgtest:  8.711e-01  t[s]:    172.21
LCAOMinimize: 	Predicted alpha/alphaT>3.000000, increasing alphaT to 8.716460e-02.
LCAOMinimize: 	Wrong curvature in test step, increasing alphaT to 2.614938e-01.
	FillingsUpdate:  mu: +0.966153757  nElectrons: 688.000000
LCAOMinimize: Iter:   7  F: -4010.2606722198188436  |grad|_K:  2.468e-02  alpha: -1.681e-01  linmin: -1.846e-02  cgtest:  5.292e-01  t[s]:    204.02
LCAOMinimize: 	Step increased F by 4.997019e+02, reducing alpha to 2.325630e-02.
	FillingsUpdate:  mu: +0.869160832  nElectrons: 688.000000
LCAOMinimize: Iter:   8  F: -4041.2428879200842857  |grad|_K:  2.005e-02  alpha:  2.326e-02  linmin: -5.206e-02  cgtest:  7.784e-01  t[s]:    245.44
LCAOMinimize: 	Predicted alpha/alphaT>3.000000, increasing alphaT to 6.976889e-02.
LCAOMinimize: 	Predicted alpha/alphaT>3.000000, increasing alphaT to 2.093067e-01.
	FillingsUpdate:  mu: +0.472816349  nElectrons: 688.000000
LCAOMinimize: Iter:   9  F: -4098.2577771017122359  |grad|_K:  1.111e-02  alpha:  2.842e-01  linmin: -2.722e-02  cgtest: -6.213e-01  t[s]:    287.17
	FillingsUpdate:  mu: +0.459612488  nElectrons: 688.000000
LCAOMinimize: Iter:  10  F: -4100.8966772672802108  |grad|_K:  1.007e-02  alpha:  1.948e-02  linmin: -5.460e-02  cgtest:  1.006e+00  t[s]:    309.93
LCAOMinimize: Encountered beta<0, resetting CG.
LCAOMinimize: 	Predicted alpha/alphaT>3.000000, increasing alphaT to 5.843916e-02.
LCAOMinimize: 	Wrong curvature in test step, increasing alphaT to 1.753175e-01.
	FillingsUpdate:  mu: +0.454565390  nElectrons: 688.000000
LCAOMinimize: Iter:  11  F: -4106.0449405465797099  |grad|_K:  8.789e-03  alpha: -5.957e+00  linmin: -7.765e-02  cgtest:  8.160e-01  t[s]:    344.08
	FillingsUpdate:  mu: +0.465736933  nElectrons: 688.000000
LCAOMinimize: Iter:  12  F: -4109.8678838073574298  |grad|_K:  4.769e-03  alpha:  6.162e-02  linmin: -8.302e-02  cgtest:  7.593e-01  t[s]:    369.39
LCAOMinimize: Encountered beta<0, resetting CG.
LCAOMinimize: 	Predicted alpha/alphaT>3.000000, increasing alphaT to 1.848678e-01.
	FillingsUpdate:  mu: +0.371492745  nElectrons: 688.000000
LCAOMinimize: Iter:  13  F: -4116.7470117088523693  |grad|_K:  7.383e-03  alpha:  3.877e-01  linmin: -6.283e-02  cgtest: -4.547e-02  t[s]:    400.41
	FillingsUpdate:  mu: +0.268486380  nElectrons: 688.000000
LCAOMinimize: Iter:  14  F: -4122.3192029693018412  |grad|_K:  5.896e-03  alpha:  1.997e-02  linmin: -1.831e-01  cgtest:  6.918e-01  t[s]:    426.74
LCAOMinimize: 	Predicted alpha/alphaT>3.000000, increasing alphaT to 5.990171e-02.
	FillingsUpdate:  mu: -0.090905705  nElectrons: 688.000000
LCAOMinimize: Iter:  15  F: -4124.8200765517176478  |grad|_K:  5.345e-03  alpha:  1.221e-01  linmin:  1.903e-01  cgtest: -3.371e-01  t[s]:    458.21
LCAOMinimize: 	Bad step direction: g.d > 0.
LCAOMinimize: 	Undoing step.
LCAOMinimize: 	Step failed: resetting search direction.
	FillingsUpdate:  mu: -0.090905705  nElectrons: 688.000000
LCAOMinimize: Iter:  16  F: -4124.8200765517176478  |grad|_K:  5.345e-03  alpha:  0.000e+00
	FillingsUpdate:  mu: +0.006701877  nElectrons: 688.000000
LCAOMinimize: Iter:  17  F: -4125.4457801319094870  |grad|_K:  3.850e-03  alpha:  6.094e-02  linmin:  2.648e-02  cgtest: -7.077e-02  t[s]:    503.11
	FillingsUpdate:  mu: +0.013066378  nElectrons: 688.000000
LCAOMinimize: Iter:  18  F: -4125.8382560801746877  |grad|_K:  1.548e-03  alpha:  6.636e-02  linmin: -3.934e-02  cgtest: -1.759e-01  t[s]:    531.05
LCAOMinimize: 	Predicted alpha/alphaT>3.000000, increasing alphaT to 1.990781e-01.
	FillingsUpdate:  mu: +0.039006916  nElectrons: 688.000000
LCAOMinimize: Iter:  19  F: -4126.1794583469691133  |grad|_K:  3.010e-03  alpha:  3.116e-01  linmin:  3.716e-03  cgtest: -2.170e-01  t[s]:    559.08
	FillingsUpdate:  mu: +0.029941121  nElectrons: 688.000000
LCAOMinimize: Iter:  20  F: -4126.2570894629352551  |grad|_K:  2.472e-03  alpha:  1.219e-02  linmin: -4.202e-02  cgtest:  9.865e-01  t[s]:    585.66
LCAOMinimize: Encountered beta<0, resetting CG.
	FillingsUpdate:  mu: -0.000118694  nElectrons: 688.000000
LCAOMinimize: Iter:  21  F: -4126.3483530163975956  |grad|_K:  9.876e-04  alpha:  3.580e-02  linmin:  4.193e-02  cgtest: -1.583e-01  t[s]:    614.21
LCAOMinimize: 	Predicted alpha/alphaT>3.000000, increasing alphaT to 1.074009e-01.
	FillingsUpdate:  mu: -0.042411052  nElectrons: 688.000000
LCAOMinimize: Iter:  22  F: -4126.3919389497714292  |grad|_K:  6.839e-04  alpha:  1.133e-01  linmin:  1.210e-02  cgtest:  2.573e-01  t[s]:    642.20
	FillingsUpdate:  mu: -0.048735887  nElectrons: 688.000000
LCAOMinimize: Iter:  23  F: -4126.3994641758044963  |grad|_K:  3.530e-04  alpha:  3.845e-02  linmin: -2.557e-03  cgtest:  9.577e-02  t[s]:    669.44
LCAOMinimize: 	Predicted alpha/alphaT>3.000000, increasing alphaT to 1.153638e-01.
	FillingsUpdate:  mu: -0.035601164  nElectrons: 688.000000
LCAOMinimize: Iter:  24  F: -4126.4088911853586978  |grad|_K:  5.287e-04  alpha:  1.739e-01  linmin: -5.711e-04  cgtest: -1.659e-02  t[s]:    705.04
	FillingsUpdate:  mu: -0.032723186  nElectrons: 688.000000
LCAOMinimize: Iter:  25  F: -4126.4155898424087354  |grad|_K:  2.178e-04  alpha:  5.493e-02  linmin: -7.403e-04  cgtest: -7.776e-02  t[s]:    726.91
LCAOMinimize: 	Predicted alpha/alphaT>3.000000, increasing alphaT to 1.647764e-01.
	FillingsUpdate:  mu: -0.040943324  nElectrons: 688.000000
LCAOMinimize: Iter:  26  F: -4126.4191955942123968  |grad|_K:  1.961e-04  alpha:  1.757e-01  linmin:  2.073e-03  cgtest:  7.242e-03  t[s]:    761.31
	FillingsUpdate:  mu: -0.042616013  nElectrons: 688.000000
LCAOMinimize: Iter:  27  F: -4126.4197486636376198  |grad|_K:  4.661e-05  alpha:  3.325e-02  linmin: -1.159e-02  cgtest:  1.864e-01  t[s]:    788.11
	FillingsUpdate:  mu: -0.042051759  nElectrons: 688.000000
LCAOMinimize: Iter:  28  F: -4126.4198289153600854  |grad|_K:  5.217e-05  alpha:  8.504e-02  linmin: -2.284e-04  cgtest: -3.401e-03  t[s]:    812.70
	FillingsUpdate:  mu: -0.041354060  nElectrons: 688.000000
LCAOMinimize: Iter:  29  F: -4126.4199125930363152  |grad|_K:  1.919e-05  alpha:  7.101e-02  linmin: -4.551e-05  cgtest:  5.476e-03  t[s]:    837.58
	FillingsUpdate:  mu: -0.041865294  nElectrons: 688.000000
LCAOMinimize: Iter:  30  F: -4126.4199334009208542  |grad|_K:  2.551e-05  alpha:  1.307e-01  linmin:  1.235e-04  cgtest: -9.824e-05  t[s]:    865.83
LCAOMinimize: None of the convergence criteria satisfied after 30 iterations.
----- createFluidSolver() ----- (Fluid-side solver setup)
   Initializing fluid molecule 'H2O'
     Initializing site 'O'
       Electron density: proportional to exp(-r/0.36935)*erfc((r-0.51523)/0.36823) with norm 6.826
       Charge density: gaussian nuclear width 0.478731 with net site charge 0.826
       Polarizability: cuspless exponential with width 0.32 and norm 3.73
       Hard sphere radius: 2.57003 bohrs
       Positions in reference frame:
         [ +0.000000 +0.000000 +0.000000 ]
     Initializing site 'H'
       Electron density: proportional to exp(-r/0.34641)*erfc((r-0)/0.390882) with norm 0.587
       Charge density: gaussian nuclear width 0.377945 with net site charge -0.413
       Polarizability: cuspless exponential with width 0.39 and norm 3.3
       Positions in reference frame:
         [ +0.000000 -1.441945 +1.122523 ]
         [ +0.000000 +1.441945 +1.122523 ]
     Net charge: 0   dipole magnitude: 0.927204
     Initializing spherical shell mfKernel with radius 2.61727 Bohr
     deltaS corrections:
       site 'O': -7.54299
       site 'H': -6.83917
   Initializing fluid molecule 'Na+'
     Initializing site 'Na'
       Electron density: proportional to exp(-r/0.19682)*erfc((r-0.71491)/0.41314) with norm 8.1383
       Charge density: gaussian nuclear width 0.365347 with net site charge -1
       Hard sphere radius: 1.86327 bohrs
       Positions in reference frame:
         [ +0.000000 +0.000000 +0.000000 ]
     Net charge: -1   dipole magnitude: 0
     Initializing gaussian mfKernel with width: 1.55004 Bohr
     deltaS corrections:
       site 'Na': -22.3555
   Initializing fluid molecule 'F-'
     Initializing site 'F'
       Electron density: proportional to exp(-r/0.38886)*erfc((r-0)/0.438782) with norm 8
       Charge density: gaussian nuclear width 0.374796 with net site charge 1
       Hard sphere radius: 2.39995 bohrs
       Positions in reference frame:
         [ +0.000000 +0.000000 +0.000000 ]
     Net charge: 1   dipole magnitude: 0
     Initializing gaussian mfKernel with width: 1.59012 Bohr
     deltaS corrections:
       site 'F': -9.04335

Correction to mu due to finite nuclear width = -0.0112528
   Cavity determined by nc: 0.00142 and sigma: 0.707107
   Nonlocal vdW cavity from gaussian model electron density with norm = 8 and sigma = 0.993594 bohr
   Charge asymmetry in cavity with sensitivity pCavity = 36.5 e-bohr/Eh
   Electrostatic cavity expanded by eta = 1.46 bohrs
   Weighted density cavitation model constrained by Nbulk: 0.0049383 bohr^-3, Pvap: 3.14029 kPa, Rvdw: 2.61727 bohr and sigmaBulk: 4.62e-05 Eh/bohr^2 at T: 298 K.
   Weighted density dispersion model using vdW pair potentials with single solvent site with sqrtC6eff: 0.77 SI.


---- Citations for features of the code used in this run ----

   Software package:
      R. Sundararaman, K. Letchworth-Weaver, K.A. Schwarz, D. Gunceler, Y. Ozhabes and T.A. Arias, 'JDFTx: software for joint density-functional theory', SoftwareX 6, 278 (2017)

   gga-PBE exchange-correlation functional:
      J.P. Perdew, K. Burke and M. Ernzerhof, Phys. Rev. Lett. 77, 3865 (1996)

   Pseudopotentials:
      KF Garrity, JW Bennett, KM Rabe and D Vanderbilt, Comput. Mater. Sci. 81, 446 (2014)

   Truncated Coulomb potentials:
      R. Sundararaman and T.A. Arias, Phys. Rev. B 87, 165122 (2013)

   Van der Waals correction pair-potentials:
      S. Grimme, J. Comput. Chem. 27, 1787 (2006)

   Charge-asymmetric nonlocally-determined local-electric (CANDLE) solvation model:
      R. Sundararaman and W.A. Goddard III, J. Chem. Phys. 142, 064107 (2015)

   Total energy minimization with Auxiliary Hamiltonian:
      C. Freysoldt, S. Boeck, and J. Neugebauer, Phys. Rev. B 79, 241103(R) (2009)

This list may not be complete. Please suggest additional citations or
report any other bugs at https://github.com/shankar1729/jdftx/issues

Initialization completed successfully at t[s]:    874.59

Fluid solver invoked on fresh (partially random / LCAO) wavefunctions
Running a vacuum solve first:

-------- Initial electronic minimization -----------
	FillingsUpdate:  mu: -0.041865294  nElectrons: 688.000000
ElecMinimize: Iter:   0  F: -4126.419933400933587  |grad|_K:  2.731e-04  alpha:  1.000e+00
	FillingsUpdate:  mu: -0.157652608  nElectrons: 688.000000
	SubspaceRotationAdjust: set factor to 0.999
ElecMinimize: Iter:   1  F: -4128.528611300530429  |grad|_K:  2.111e-04  alpha:  1.229e-01  linmin:  1.313e-05  t[s]:    950.03
	FillingsUpdate:  mu: -0.122392139  nElectrons: 688.000000
	SubspaceRotationAdjust: set factor to 1.12
ElecMinimize: Iter:   2  F: -4130.778523802256132  |grad|_K:  1.148e-04  alpha:  1.990e-01  linmin: -2.986e-05  t[s]:   1003.46
	FillingsUpdate:  mu: -0.011229595  nElectrons: 688.000000
	SubspaceRotationAdjust: set factor to 1.19
ElecMinimize: Iter:   3  F: -4131.383132668134749  |grad|_K:  1.341e-04  alpha:  1.569e-01  linmin: -3.322e-07  t[s]:   1049.94
	FillingsUpdate:  mu: +0.001082209  nElectrons: 688.000000
	SubspaceRotationAdjust: set factor to 0.991
ElecMinimize: Iter:   4  F: -4131.901716422686150  |grad|_K:  1.627e-04  alpha:  1.186e-01  linmin:  2.124e-07  t[s]:   1103.93
	FillingsUpdate:  mu: -0.105361981  nElectrons: 688.000000
	SubspaceRotationAdjust: set factor to 0.713
ElecMinimize: Iter:   5  F: -4132.252750575422397  |grad|_K:  5.513e-05  alpha:  5.205e-02  linmin: -2.924e-06  t[s]:   1151.51
	FillingsUpdate:  mu: -0.120435113  nElectrons: 688.000000
	SubspaceRotationAdjust: set factor to 0.67
ElecMinimize: Iter:   6  F: -4132.328880147983000  |grad|_K:  5.856e-05  alpha:  9.997e-02  linmin: -1.112e-06  t[s]:   1204.65
	FillingsUpdate:  mu: -0.123094636  nElectrons: 688.000000
	SubspaceRotationAdjust: set factor to 0.689
ElecMinimize: Iter:   7  F: -4132.429001098503250  |grad|_K:  5.056e-05  alpha:  1.197e-01  linmin: -5.136e-07  t[s]:   1255.72
	FillingsUpdate:  mu: -0.098599646  nElectrons: 688.000000
	SubspaceRotationAdjust: set factor to 0.666
ElecMinimize: Iter:   8  F: -4132.494960261350570  |grad|_K:  3.638e-05  alpha:  1.064e-01  linmin: -5.531e-08  t[s]:   1302.08
	FillingsUpdate:  mu: -0.098265534  nElectrons: 688.000000
	SubspaceRotationAdjust: set factor to 0.6
ElecMinimize: Iter:   9  F: -4132.530806498856691  |grad|_K:  3.589e-05  alpha:  1.123e-01  linmin: -1.828e-06  t[s]:   1356.57
	FillingsUpdate:  mu: -0.109402634  nElectrons: 688.000000
	SubspaceRotationAdjust: set factor to 0.829
ElecMinimize: Iter:  10  F: -4132.559451894271660  |grad|_K:  1.616e-05  alpha:  9.152e-02  linmin: -7.257e-07  t[s]:   1402.64
	FillingsUpdate:  mu: -0.114988726  nElectrons: 688.000000
	SubspaceRotationAdjust: set factor to 0.817
ElecMinimize: Iter:  11  F: -4132.568315526200422  |grad|_K:  2.141e-05  alpha:  1.410e-01  linmin:  4.032e-07  t[s]:   1456.17
	FillingsUpdate:  mu: -0.120380941  nElectrons: 688.000000
	SubspaceRotationAdjust: set factor to 0.667
ElecMinimize: Iter:  12  F: -4132.580248350345755  |grad|_K:  1.641e-05  alpha:  1.081e-01  linmin:  1.176e-07  t[s]:   1503.97
	FillingsUpdate:  mu: -0.118044503  nElectrons: 688.000000
	SubspaceRotationAdjust: set factor to 0.769
ElecMinimize: Iter:  13  F: -4132.586700857239521  |grad|_K:  1.160e-05  alpha:  9.956e-02  linmin:  1.143e-08  t[s]:   1555.91
	FillingsUpdate:  mu: -0.118147272  nElectrons: 688.000000
	SubspaceRotationAdjust: set factor to 0.679
ElecMinimize: Iter:  14  F: -4132.589863932556909  |grad|_K:  9.592e-06  alpha:  9.763e-02  linmin:  6.609e-08  t[s]:   1606.49
	FillingsUpdate:  mu: -0.120360249  nElectrons: 688.000000
	SubspaceRotationAdjust: set factor to 0.737
ElecMinimize: Iter:  15  F: -4132.592675589522514  |grad|_K:  7.682e-06  alpha:  1.270e-01  linmin:  9.039e-08  t[s]:   1655.53
	FillingsUpdate:  mu: -0.119508275  nElectrons: 688.000000
	SubspaceRotationAdjust: set factor to 0.663
ElecMinimize: Iter:  16  F: -4132.594277686706846  |grad|_K:  7.106e-06  alpha:  1.129e-01  linmin: -9.221e-09  t[s]:   1708.80
	FillingsUpdate:  mu: -0.117533521  nElectrons: 688.000000
	SubspaceRotationAdjust: set factor to 0.595
ElecMinimize: Iter:  17  F: -4132.595435730108875  |grad|_K:  4.806e-06  alpha:  9.517e-02  linmin: -7.503e-09  t[s]:   1754.53
	FillingsUpdate:  mu: -0.117202203  nElectrons: 688.000000
	SubspaceRotationAdjust: set factor to 0.678
ElecMinimize: Iter:  18  F: -4132.596304471695476  |grad|_K:  3.790e-06  alpha:  1.561e-01  linmin:  3.903e-08  t[s]:   1807.31
	FillingsUpdate:  mu: -0.117812293  nElectrons: 688.000000
	SubspaceRotationAdjust: set factor to 0.593
ElecMinimize: Iter:  19  F: -4132.596675946793766  |grad|_K:  3.579e-06  alpha:  1.074e-01  linmin:  1.045e-09  t[s]:   1855.06
	FillingsUpdate:  mu: -0.118266451  nElectrons: 688.000000
	SubspaceRotationAdjust: set factor to 0.578
ElecMinimize: Iter:  20  F: -4132.597071582175886  |grad|_K:  2.419e-06  alpha:  1.282e-01  linmin:  7.170e-08  t[s]:   1906.63
	FillingsUpdate:  mu: -0.117783039  nElectrons: 688.000000
	SubspaceRotationAdjust: set factor to 0.622
ElecMinimize: Iter:  21  F: -4132.597248737833979  |grad|_K:  2.002e-06  alpha:  1.258e-01  linmin:  1.157e-08  t[s]:   1958.61
	FillingsUpdate:  mu: -0.118028030  nElectrons: 688.000000
	SubspaceRotationAdjust: set factor to 0.606
ElecMinimize: Iter:  22  F: -4132.597422780947454  |grad|_K:  2.191e-06  alpha:  1.804e-01  linmin:  2.250e-07  t[s]:   2006.86
	FillingsUpdate:  mu: -0.118482374  nElectrons: 688.000000
	SubspaceRotationAdjust: set factor to 0.486
ElecMinimize: Iter:  23  F: -4132.597520362814066  |grad|_K:  1.187e-06  alpha:  8.438e-02  linmin: -4.881e-07  t[s]:   2059.17
	FillingsUpdate:  mu: -0.118544670  nElectrons: 688.000000
	SubspaceRotationAdjust: set factor to 0.526
ElecMinimize: Iter:  24  F: -4132.597582913289443  |grad|_K:  1.119e-06  alpha:  1.842e-01  linmin:  1.093e-07  t[s]:   2103.51
	FillingsUpdate:  mu: -0.118326598  nElectrons: 688.000000
	SubspaceRotationAdjust: set factor to 0.501
ElecMinimize: Iter:  25  F: -4132.597618963589412  |grad|_K:  9.167e-07  alpha:  1.195e-01  linmin: -6.403e-09  t[s]:   2157.10
	FillingsUpdate:  mu: -0.118197043  nElectrons: 688.000000
	SubspaceRotationAdjust: set factor to 0.478
ElecMinimize: Iter:  26  F: -4132.597651232801582  |grad|_K:  8.172e-07  alpha:  1.594e-01  linmin:  4.019e-08  t[s]:   2204.98
	FillingsUpdate:  mu: -0.118315705  nElectrons: 688.000000
	SubspaceRotationAdjust: set factor to 0.508
ElecMinimize: Iter:  27  F: -4132.597671437550161  |grad|_K:  5.627e-07  alpha:  1.256e-01  linmin:  1.094e-08  t[s]:   2256.97
	FillingsUpdate:  mu: -0.118321205  nElectrons: 688.000000
	SubspaceRotationAdjust: set factor to 0.508
ElecMinimize: Iter:  28  F: -4132.597682743736186  |grad|_K:  5.266e-07  alpha:  1.483e-01  linmin:  1.743e-08  t[s]:   2305.34
	FillingsUpdate:  mu: -0.118265303  nElectrons: 688.000000
	SubspaceRotationAdjust: set factor to 0.446
ElecMinimize: Iter:  29  F: -4132.597691221729292  |grad|_K:  4.069e-07  alpha:  1.269e-01  linmin:  7.582e-09  t[s]:   2355.87
	FillingsUpdate:  mu: -0.118301799  nElectrons: 688.000000
	SubspaceRotationAdjust: set factor to 0.509
ElecMinimize: Iter:  30  F: -4132.597697383915147  |grad|_K:  3.155e-07  alpha:  1.545e-01  linmin:  2.852e-08  t[s]:   2403.99
	FillingsUpdate:  mu: -0.118369811  nElectrons: 688.000000
	SubspaceRotationAdjust: set factor to 0.452
ElecMinimize: Iter:  31  F: -4132.597701170712753  |grad|_K:  2.838e-07  alpha:  1.580e-01  linmin:  1.729e-08  t[s]:   2453.52
	FillingsUpdate:  mu: -0.118369447  nElectrons: 688.000000
	SubspaceRotationAdjust: set factor to 0.45
ElecMinimize: Iter:  32  F: -4132.597703512992666  |grad|_K:  2.163e-07  alpha:  1.208e-01  linmin:  3.652e-09  t[s]:   2502.57
	FillingsUpdate:  mu: -0.118351284  nElectrons: 688.000000
	SubspaceRotationAdjust: set factor to 0.458
ElecMinimize: Iter:  33  F: -4132.597705425780987  |grad|_K:  1.835e-07  alpha:  1.698e-01  linmin:  2.693e-08  t[s]:   2552.35
	FillingsUpdate:  mu: -0.118382842  nElectrons: 688.000000
	SubspaceRotationAdjust: set factor to 0.49
ElecMinimize: Iter:  34  F: -4132.597706486002608  |grad|_K:  1.277e-07  alpha:  1.307e-01  linmin:  1.588e-09  t[s]:   2602.78
	FillingsUpdate:  mu: -0.118381219  nElectrons: 688.000000
	SubspaceRotationAdjust: set factor to 0.481
ElecMinimize: Iter:  35  F: -4132.597707227154388  |grad|_K:  1.435e-07  alpha:  1.888e-01  linmin:  1.915e-08  t[s]:   2652.95
	FillingsUpdate:  mu: -0.118351216  nElectrons: 688.000000
	SubspaceRotationAdjust: set factor to 0.457
ElecMinimize: Iter:  36  F: -4132.597707798712690  |grad|_K:  8.667e-08  alpha:  1.152e-01  linmin: -9.787e-09  t[s]:   2701.17
	FillingsUpdate:  mu: -0.118340770  nElectrons: 688.000000
	SubspaceRotationAdjust: set factor to 0.488
ElecMinimize: Iter:  37  F: -4132.597708072900787  |grad|_K:  7.493e-08  alpha:  1.514e-01  linmin: -2.003e-09  t[s]:   2750.87
	FillingsUpdate:  mu: -0.118353209  nElectrons: 688.000000
	SubspaceRotationAdjust: set factor to 0.481
ElecMinimize: Iter:  38  F: -4132.597708325895837  |grad|_K:  7.098e-08  alpha:  1.871e-01  linmin:  2.807e-08  t[s]:   2796.04
	FillingsUpdate:  mu: -0.118352790  nElectrons: 688.000000
	SubspaceRotationAdjust: set factor to 0.463
ElecMinimize: Iter:  39  F: -4132.597708477204833  |grad|_K:  5.511e-08  alpha:  1.247e-01  linmin:  2.922e-09  t[s]:   2847.93
	FillingsUpdate:  mu: -0.118348518  nElectrons: 688.000000
	SubspaceRotationAdjust: set factor to 0.426
ElecMinimize: Iter:  40  F: -4132.597708582087762  |grad|_K:  4.229e-08  alpha:  1.434e-01  linmin:  1.480e-08  t[s]:   2892.56
	FillingsUpdate:  mu: -0.118356910  nElectrons: 688.000000
	SubspaceRotationAdjust: set factor to 0.461
ElecMinimize: Iter:  41  F: -4132.597708640904784  |grad|_K:  3.256e-08  alpha:  1.366e-01  linmin:  2.108e-09  t[s]:   2943.64
	FillingsUpdate:  mu: -0.118362650  nElectrons: 688.000000
	SubspaceRotationAdjust: set factor to 0.432
ElecMinimize: Iter:  42  F: -4132.597708689954743  |grad|_K:  3.236e-08  alpha:  1.920e-01  linmin:  1.781e-08  t[s]:   2990.64
	FillingsUpdate:  mu: -0.118358697  nElectrons: 688.000000
	SubspaceRotationAdjust: set factor to 0.443
ElecMinimize: Iter:  43  F: -4132.597708719134971  |grad|_K:  2.088e-08  alpha:  1.159e-01  linmin: -1.125e-08  t[s]:   3037.96
	FillingsUpdate:  mu: -0.118356024  nElectrons: 688.000000
	SubspaceRotationAdjust: set factor to 0.463
ElecMinimize: Iter:  44  F: -4132.597708739180234  |grad|_K:  2.065e-08  alpha:  1.898e-01  linmin: -6.605e-08  t[s]:   3090.91
	FillingsUpdate:  mu: -0.118357910  nElectrons: 688.000000
	SubspaceRotationAdjust: set factor to 0.42
ElecMinimize: Iter:  45  F: -4132.597708752349718  |grad|_K:  1.532e-08  alpha:  1.275e-01  linmin: -5.038e-09  t[s]:   3136.28
	FillingsUpdate:  mu: -0.118357142  nElectrons: 688.000000
	SubspaceRotationAdjust: set factor to 0.438
ElecMinimize: Iter:  46  F: -4132.597708761929425  |grad|_K:  1.312e-08  alpha:  1.695e-01  linmin:  4.688e-08  t[s]:   3187.83
	FillingsUpdate:  mu: -0.118354434  nElectrons: 688.000000
	SubspaceRotationAdjust: set factor to 0.435
ElecMinimize: Iter:  47  F: -4132.597708767403674  |grad|_K:  9.621e-09  alpha:  1.334e-01  linmin: -6.926e-09  t[s]:   3232.12
ElecMinimize: Converged (|Delta F|<1.000000e-08 for 2 iters).
Setting wave functions to eigenvectors of Hamiltonian
Vacuum energy after initial minimize, F = -4132.597708767403674

	Linear fluid (dielectric constant: 78.4, screening length: 5.74355 Bohr) occupying 0.783442 of unit cell:	Completed after 20 iterations at t[s]:   3244.49

-------- Electronic minimization -----------
	Linear fluid (dielectric constant: 78.4, screening length: 5.74355 Bohr) occupying 0.783442 of unit cell:	Completed after 0 iterations at t[s]:   3252.75
	FillingsUpdate:  mu: -0.180856287  nElectrons: 688.000000
ElecMinimize: Iter:   0  F: -4132.617779871536186  |grad|_K:  5.521e-06  alpha:  1.000e+00
	Linear fluid (dielectric constant: 78.4, screening length: 5.74355 Bohr) occupying 0.784735 of unit cell:	Completed after 15 iterations at t[s]:   3294.00
	Linear fluid (dielectric constant: 78.4, screening length: 5.74355 Bohr) occupying 0.784618 of unit cell:	Completed after 7 iterations at t[s]:   3308.00
	FillingsUpdate:  mu: -0.172738682  nElectrons: 688.000000
	SubspaceRotationAdjust: set factor to 0.447
ElecMinimize: Iter:   1  F: -4132.624451494573805  |grad|_K:  5.203e-06  alpha:  9.106e-01  linmin: -5.632e-06  t[s]:   3326.36
	Linear fluid (dielectric constant: 78.4, screening length: 5.74355 Bohr) occupying 0.786018 of unit cell:	Completed after 14 iterations at t[s]:   3344.97
	Linear fluid (dielectric constant: 78.4, screening length: 5.74355 Bohr) occupying 0.784888 of unit cell:	Completed after 14 iterations at t[s]:   3358.59
	FillingsUpdate:  mu: -0.175419580  nElectrons: 688.000000
	SubspaceRotationAdjust: set factor to 0.476
ElecMinimize: Iter:   2  F: -4132.625588788859204  |grad|_K:  5.145e-06  alpha:  1.728e-01  linmin:  5.010e-07  t[s]:   3374.28
	Linear fluid (dielectric constant: 78.4, screening length: 5.74355 Bohr) occupying 0.785210 of unit cell:	Completed after 10 iterations at t[s]:   3392.64
	Linear fluid (dielectric constant: 78.4, screening length: 5.74355 Bohr) occupying 0.785269 of unit cell:	Completed after 3 iterations at t[s]:   3409.09
	FillingsUpdate:  mu: -0.174131639  nElectrons: 688.000000
	SubspaceRotationAdjust: set factor to 0.448
ElecMinimize: Iter:   3  F: -4132.626894468708088  |grad|_K:  3.963e-06  alpha:  2.050e-01  linmin: -5.642e-07  t[s]:   3431.42
	Linear fluid (dielectric constant: 78.4, screening length: 5.74355 Bohr) occupying 0.785537 of unit cell:	Completed after 10 iterations at t[s]:   3452.46
	Linear fluid (dielectric constant: 78.4, screening length: 5.74355 Bohr) occupying 0.785432 of unit cell:	Completed after 6 iterations at t[s]:   3465.04
	FillingsUpdate:  mu: -0.173366149  nElectrons: 688.000000
	SubspaceRotationAdjust: set factor to 0.384
ElecMinimize: Iter:   4  F: -4132.627364971087445  |grad|_K:  3.385e-06  alpha:  1.242e-01  linmin:  1.130e-07  t[s]:   3486.49
	Linear fluid (dielectric constant: 78.4, screening length: 5.74355 Bohr) occupying 0.785568 of unit cell:	Completed after 6 iterations at t[s]:   3508.22
	Linear fluid (dielectric constant: 78.4, screening length: 5.74355 Bohr) occupying 0.785610 of unit cell:	Completed after 4 iterations at t[s]:   3526.20
	FillingsUpdate:  mu: -0.174489960  nElectrons: 688.000000
	SubspaceRotationAdjust: set factor to 0.392
ElecMinimize: Iter:   5  F: -4132.627815148843183  |grad|_K:  1.641e-06  alpha:  1.632e-01  linmin:  3.414e-07  t[s]:   3548.65
	Linear fluid (dielectric constant: 78.4, screening length: 5.74355 Bohr) occupying 0.785663 of unit cell:	Completed after 2 iterations at t[s]:   3566.98
	Linear fluid (dielectric constant: 78.4, screening length: 5.74355 Bohr) occupying 0.785729 of unit cell:	Completed after 3 iterations at t[s]:   3579.92
	FillingsUpdate:  mu: -0.174515041  nElectrons: 688.000000
	SubspaceRotationAdjust: set factor to 0.398
ElecMinimize: Iter:   6  F: -4132.628054977657484  |grad|_K:  1.701e-06  alpha:  3.694e-01  linmin: -1.139e-06  t[s]:   3601.51
	Linear fluid (dielectric constant: 78.4, screening length: 5.74355 Bohr) occupying 0.785865 of unit cell:	Completed after 8 iterations at t[s]:   3620.53
	Linear fluid (dielectric constant: 78.4, screening length: 5.74355 Bohr) occupying 0.785769 of unit cell:	Completed after 4 iterations at t[s]:   3638.55
	FillingsUpdate:  mu: -0.174310889  nElectrons: 688.000000
	SubspaceRotationAdjust: set factor to 0.363
ElecMinimize: Iter:   7  F: -4132.628128930175080  |grad|_K:  9.478e-07  alpha:  1.064e-01  linmin:  1.460e-06  t[s]:   3660.67
	Linear fluid (dielectric constant: 78.4, screening length: 5.74355 Bohr) occupying 0.785782 of unit cell:	Completed after 3 iterations at t[s]:   3677.79
	Linear fluid (dielectric constant: 78.4, screening length: 5.74355 Bohr) occupying 0.785794 of unit cell:	Completed after 2 iterations at t[s]:   3689.62
	FillingsUpdate:  mu: -0.174296836  nElectrons: 688.000000
	SubspaceRotationAdjust: set factor to 0.346
ElecMinimize: Iter:   8  F: -4132.628173284449076  |grad|_K:  1.007e-06  alpha:  2.032e-01  linmin: -7.318e-06  t[s]:   3713.16
	Linear fluid (dielectric constant: 78.4, screening length: 5.74355 Bohr) occupying 0.785823 of unit cell:	Completed after 3 iterations at t[s]:   3736.25
	Linear fluid (dielectric constant: 78.4, screening length: 5.74355 Bohr) occupying 0.785819 of unit cell:	Completed after 0 iterations at t[s]:   3752.68
	FillingsUpdate:  mu: -0.174255929  nElectrons: 688.000000
	SubspaceRotationAdjust: set factor to 0.33
ElecMinimize: Iter:   9  F: -4132.628217264046725  |grad|_K:  6.090e-07  alpha:  1.760e-01  linmin:  2.233e-05  t[s]:   3774.23
	Linear fluid (dielectric constant: 78.4, screening length: 5.74355 Bohr) occupying 0.785827 of unit cell:	Completed after 2 iterations at t[s]:   3790.21
	Linear fluid (dielectric constant: 78.4, screening length: 5.74355 Bohr) occupying 0.785825 of unit cell:	Completed after 1 iterations at t[s]:   3804.95
	FillingsUpdate:  mu: -0.174205050  nElectrons: 688.000000
	SubspaceRotationAdjust: set factor to 0.316
ElecMinimize: Iter:  10  F: -4132.628228559430681  |grad|_K:  4.648e-07  alpha:  1.336e-01  linmin:  4.033e-07  t[s]:   3825.96
	Linear fluid (dielectric constant: 78.4, screening length: 5.74355 Bohr) occupying 0.785827 of unit cell:	Completed after 2 iterations at t[s]:   3844.39
	Linear fluid (dielectric constant: 78.4, screening length: 5.74355 Bohr) occupying 0.785828 of unit cell:	Completed after 0 iterations at t[s]:   3861.19
	FillingsUpdate:  mu: -0.174248403  nElectrons: 688.000000
	SubspaceRotationAdjust: set factor to 0.304
ElecMinimize: Iter:  11  F: -4132.628236790151277  |grad|_K:  3.458e-07  alpha:  1.551e-01  linmin: -8.404e-05  t[s]:   3882.37
	Linear fluid (dielectric constant: 78.4, screening length: 5.74355 Bohr) occupying 0.785828 of unit cell:	Completed after 2 iterations at t[s]:   3897.75
	Linear fluid (dielectric constant: 78.4, screening length: 5.74355 Bohr) occupying 0.785828 of unit cell:	Completed after 0 iterations at t[s]:   3911.65
	FillingsUpdate:  mu: -0.174288983  nElectrons: 688.000000
	SubspaceRotationAdjust: set factor to 0.321
ElecMinimize: Iter:  12  F: -4132.628243372940233  |grad|_K:  3.516e-07  alpha:  2.068e-01  linmin: -1.214e-05  t[s]:   3932.60
	Linear fluid (dielectric constant: 78.4, screening length: 5.74355 Bohr) occupying 0.785828 of unit cell:	Completed after 3 iterations at t[s]:   3951.48
	Linear fluid (dielectric constant: 78.4, screening length: 5.74355 Bohr) occupying 0.785828 of unit cell:	Completed after 0 iterations at t[s]:   3968.09
	FillingsUpdate:  mu: -0.174352173  nElectrons: 688.000000
	SubspaceRotationAdjust: set factor to 0.315
ElecMinimize: Iter:  13  F: -4132.628246979376854  |grad|_K:  4.245e-07  alpha:  1.165e-01  linmin:  4.009e-05  t[s]:   3990.42
	Linear fluid (dielectric constant: 78.4, screening length: 5.74355 Bohr) occupying 0.785828 of unit cell:	Completed after 1 iterations at t[s]:   4007.23
	Linear fluid (dielectric constant: 78.4, screening length: 5.74355 Bohr) occupying 0.785828 of unit cell:	Completed after 3 iterations at t[s]:   4020.70
	FillingsUpdate:  mu: -0.174337770  nElectrons: 688.000000
	SubspaceRotationAdjust: set factor to 0.371
ElecMinimize: Iter:  14  F: -4132.628248021574109  |grad|_K:  2.136e-07  alpha:  4.491e-02  linmin:  9.060e-06  t[s]:   4042.24
	Linear fluid (dielectric constant: 78.4, screening length: 5.74355 Bohr) occupying 0.785828 of unit cell:	Completed after 0 iterations at t[s]:   4060.70
ElecMinimize: 	Predicted alpha/alphaT>3.000000, increasing alphaT to 1.347331e-01.
	Linear fluid (dielectric constant: 78.4, screening length: 5.74355 Bohr) occupying 0.785828 of unit cell:	Completed after 2 iterations at t[s]:   4077.32
	Linear fluid (dielectric constant: 78.4, screening length: 5.74355 Bohr) occupying 0.785828 of unit cell:	Completed after 0 iterations at t[s]:   4094.00
	FillingsUpdate:  mu: -0.174334769  nElectrons: 688.000000
	SubspaceRotationAdjust: set factor to 0.362
ElecMinimize: Iter:  15  F: -4132.628249145073823  |grad|_K:  2.482e-07  alpha:  9.709e-02  linmin:  5.518e-05  t[s]:   4110.83
	Linear fluid (dielectric constant: 78.4, screening length: 5.74355 Bohr) occupying 0.785828 of unit cell:	Completed after 0 iterations at t[s]:   4127.83
	Linear fluid (dielectric constant: 78.4, screening length: 5.74355 Bohr) occupying 0.785828 of unit cell:	Completed after 1 iterations at t[s]:   4143.51
	FillingsUpdate:  mu: -0.174337348  nElectrons: 688.000000
	SubspaceRotationAdjust: set factor to 0.411
ElecMinimize: Iter:  16  F: -4132.628250115393712  |grad|_K:  2.304e-07  alpha:  1.045e-01  linmin:  2.096e-05  t[s]:   4164.23
	Linear fluid (dielectric constant: 78.4, screening length: 5.74355 Bohr) occupying 0.785828 of unit cell:	Completed after 2 iterations at t[s]:   4183.49
	Linear fluid (dielectric constant: 78.4, screening length: 5.74355 Bohr) occupying 0.785828 of unit cell:	Completed after 0 iterations at t[s]:   4199.51
	FillingsUpdate:  mu: -0.174340557  nElectrons: 688.000000
	SubspaceRotationAdjust: set factor to 0.379
ElecMinimize: Iter:  17  F: -4132.628250907217080  |grad|_K:  2.198e-07  alpha:  6.977e-02  linmin:  2.272e-05  t[s]:   4217.19
	Linear fluid (dielectric constant: 78.4, screening length: 5.74355 Bohr) occupying 0.785828 of unit cell:	Completed after 0 iterations at t[s]:   4234.59
	Linear fluid (dielectric constant: 78.4, screening length: 5.74355 Bohr) occupying 0.785828 of unit cell:	Completed after 0 iterations at t[s]:   4251.25
	FillingsUpdate:  mu: -0.174340992  nElectrons: 688.000000
	SubspaceRotationAdjust: set factor to 0.538
ElecMinimize: Iter:  18  F: -4132.628251652880863  |grad|_K:  1.949e-07  alpha:  7.254e-02  linmin:  1.483e-08  t[s]:   4271.80
	Linear fluid (dielectric constant: 78.4, screening length: 5.74355 Bohr) occupying 0.785828 of unit cell:	Completed after 2 iterations at t[s]:   4290.00
	Linear fluid (dielectric constant: 78.4, screening length: 5.74355 Bohr) occupying 0.785828 of unit cell:	Completed after 1 iterations at t[s]:   4306.87
ElecMinimize: 	Step increased F by 4.717276e-08, reducing alpha to 2.514710e-03.
	Linear fluid (dielectric constant: 78.4, screening length: 5.74355 Bohr) occupying 0.785828 of unit cell:	Completed after 1 iterations at t[s]:   4336.67
ElecMinimize: 	Step increased F by 1.147819e-07, reducing alpha to 2.514710e-04.
	Linear fluid (dielectric constant: 78.4, screening length: 5.74355 Bohr) occupying 0.785828 of unit cell:	Completed after 0 iterations at t[s]:   4372.21
ElecMinimize: 	Step increased F by 1.203243e-07, reducing alpha to 2.514710e-05.
ElecMinimize: 	Step failed to reduce F after 3 attempts. Quitting step.
ElecMinimize: 	Undoing step.
	Linear fluid (dielectric constant: 78.4, screening length: 5.74355 Bohr) occupying 0.785828 of unit cell:	Completed after 0 iterations at t[s]:   4407.42
ElecMinimize: 	Step failed: resetting search direction.
	FillingsUpdate:  mu: -0.174336451  nElectrons: 688.000000
	SubspaceRotationAdjust: set factor to 0.53
ElecMinimize: Iter:  19  F: -4132.628251532452850  |grad|_K:  1.227e-07  alpha:  2.515e-05
	Linear fluid (dielectric constant: 78.4, screening length: 5.74355 Bohr) occupying 0.785828 of unit cell:	Completed after 0 iterations at t[s]:   4441.23
	Linear fluid (dielectric constant: 78.4, screening length: 5.74355 Bohr) occupying 0.785828 of unit cell:	Completed after 0 iterations at t[s]:   4457.84
	FillingsUpdate:  mu: -0.174337142  nElectrons: 688.000000
	SubspaceRotationAdjust: set factor to 0.586
ElecMinimize: Iter:  20  F: -4132.628251979233937  |grad|_K:  8.564e-08  alpha:  1.231e-01  linmin: -6.400e-08  t[s]:   4479.75
	Linear fluid (dielectric constant: 78.4, screening length: 5.74355 Bohr) occupying 0.785829 of unit cell:	Completed after 2 iterations at t[s]:   4499.25
	Linear fluid (dielectric constant: 78.4, screening length: 5.74355 Bohr) occupying 0.785828 of unit cell:	Completed after 0 iterations at t[s]:   4514.51
ElecMinimize: 	Step increased F by 6.853952e-08, reducing alpha to 5.545724e-03.
	Linear fluid (dielectric constant: 78.4, screening length: 5.74355 Bohr) occupying 0.785828 of unit cell:	Completed after 0 iterations at t[s]:   4541.86
ElecMinimize: 	Step increased F by 1.309681e-07, reducing alpha to 5.545724e-04.
	Linear fluid (dielectric constant: 78.4, screening length: 5.74355 Bohr) occupying 0.785828 of unit cell:	Completed after 0 iterations at t[s]:   4575.71
ElecMinimize: 	Step increased F by 1.394019e-07, reducing alpha to 5.545724e-05.
ElecMinimize: 	Step failed to reduce F after 3 attempts. Quitting step.
ElecMinimize: 	Undoing step.
	Linear fluid (dielectric constant: 78.4, screening length: 5.74355 Bohr) occupying 0.785828 of unit cell:	Completed after 0 iterations at t[s]:   4612.94
ElecMinimize: 	Step failed: resetting search direction.
	FillingsUpdate:  mu: -0.174322569  nElectrons: 688.000000
	SubspaceRotationAdjust: set factor to 0.57
ElecMinimize: Iter:  21  F: -4132.628251839799304  |grad|_K:  1.502e-07  alpha:  5.546e-05
	Linear fluid (dielectric constant: 78.4, screening length: 5.74355 Bohr) occupying 0.785828 of unit cell:	Completed after 2 iterations at t[s]:   4649.87
	Linear fluid (dielectric constant: 78.4, screening length: 5.74355 Bohr) occupying 0.785828 of unit cell:	Completed after 1 iterations at t[s]:   4666.87
	FillingsUpdate:  mu: -0.174339594  nElectrons: 688.000000
	SubspaceRotationAdjust: set factor to 0.375
ElecMinimize: Iter:  22  F: -4132.628252133189562  |grad|_K:  1.337e-07  alpha:  4.938e-02  linmin:  2.482e-04  t[s]:   4688.75
	Linear fluid (dielectric constant: 78.4, screening length: 5.74355 Bohr) occupying 0.785828 of unit cell:	Completed after 0 iterations at t[s]:   4708.32
	Linear fluid (dielectric constant: 78.4, screening length: 5.74355 Bohr) occupying 0.785828 of unit cell:	Completed after 0 iterations at t[s]:   4723.60
	FillingsUpdate:  mu: -0.174339822  nElectrons: 688.000000
	SubspaceRotationAdjust: set factor to 0.503
ElecMinimize: Iter:  23  F: -4132.628252239605899  |grad|_K:  1.114e-07  alpha:  5.006e-02  linmin: -5.792e-05  t[s]:   4743.05
	Linear fluid (dielectric constant: 78.4, screening length: 5.74355 Bohr) occupying 0.785829 of unit cell:	Completed after 2 iterations at t[s]:   4758.63
	Linear fluid (dielectric constant: 78.4, screening length: 5.74355 Bohr) occupying 0.785828 of unit cell:	Completed after 0 iterations at t[s]:   4775.37
ElecMinimize: 	Step increased F by 4.774847e-08, reducing alpha to 1.838447e-03.
	Linear fluid (dielectric constant: 78.4, screening length: 5.74355 Bohr) occupying 0.785828 of unit cell:	Completed after 0 iterations at t[s]:   4810.45
ElecMinimize: 	Step increased F by 1.113131e-08, reducing alpha to 1.838447e-04.
	Linear fluid (dielectric constant: 78.4, screening length: 5.74355 Bohr) occupying 0.785828 of unit cell:	Completed after 0 iterations at t[s]:   4844.02
ElecMinimize: 	Step increased F by 7.774361e-09, reducing alpha to 1.838447e-05.
ElecMinimize: 	Step failed to reduce F after 3 attempts. Quitting step.
ElecMinimize: 	Undoing step.
	Linear fluid (dielectric constant: 78.4, screening length: 5.74355 Bohr) occupying 0.785828 of unit cell:	Completed after 0 iterations at t[s]:   4873.34
ElecMinimize: 	Step failed: resetting search direction.
	FillingsUpdate:  mu: -0.174332353  nElectrons: 688.000000
	SubspaceRotationAdjust: set factor to 0.362
ElecMinimize: Iter:  24  F: -4132.628252231875194  |grad|_K:  9.468e-08  alpha:  1.838e-05
	Linear fluid (dielectric constant: 78.4, screening length: 5.74355 Bohr) occupying 0.785828 of unit cell:	Completed after 0 iterations at t[s]:   4914.99
ElecMinimize: 	Predicted alpha/alphaT>3.000000, increasing alphaT to 1.501803e-01.
	Linear fluid (dielectric constant: 78.4, screening length: 5.74355 Bohr) occupying 0.785829 of unit cell:	Completed after 1 iterations at t[s]:   4932.09
	Linear fluid (dielectric constant: 78.4, screening length: 5.74355 Bohr) occupying 0.785828 of unit cell:	Completed after 1 iterations at t[s]:   4948.99
ElecMinimize: 	Step increased F by 2.125580e-08, reducing alpha to 3.769371e-03.
	Linear fluid (dielectric constant: 78.4, screening length: 5.74355 Bohr) occupying 0.785828 of unit cell:	Completed after 0 iterations at t[s]:   4976.76
	FillingsUpdate:  mu: -0.174335778  nElectrons: 688.000000
	SubspaceRotationAdjust: set factor to 0.274
ElecMinimize: Iter:  25  F: -4132.628252355452787  |grad|_K:  1.441e-07  alpha:  3.769e-03  linmin:  1.874e-04  t[s]:   5000.17
	Linear fluid (dielectric constant: 78.4, screening length: 5.74355 Bohr) occupying 0.785828 of unit cell:	Completed after 0 iterations at t[s]:   5020.36
	Linear fluid (dielectric constant: 78.4, screening length: 5.74355 Bohr) occupying 0.785828 of unit cell:	Completed after 0 iterations at t[s]:   5036.24
	FillingsUpdate:  mu: -0.174335826  nElectrons: 688.000000
	SubspaceRotationAdjust: set factor to 0.373
ElecMinimize: Iter:  26  F: -4132.628252357551901  |grad|_K:  1.344e-07  alpha:  6.522e-03  linmin: -1.099e-07  t[s]:   5058.60
	Linear fluid (dielectric constant: 78.4, screening length: 5.74355 Bohr) occupying 0.785829 of unit cell:	Completed after 0 iterations at t[s]:   5073.63
ElecMinimize: 	Predicted alpha/alphaT>3.000000, increasing alphaT to 1.956690e-02.
	Linear fluid (dielectric constant: 78.4, screening length: 5.74355 Bohr) occupying 0.785829 of unit cell:	Completed after 0 iterations at t[s]:   5087.27
ElecMinimize: 	Predicted alpha/alphaT>3.000000, increasing alphaT to 5.870070e-02.
	Linear fluid (dielectric constant: 78.4, screening length: 5.74355 Bohr) occupying 0.785829 of unit cell:	Completed after 2 iterations at t[s]:   5102.65
	Linear fluid (dielectric constant: 78.4, screening length: 5.74355 Bohr) occupying 0.785829 of unit cell:	Completed after 0 iterations at t[s]:   5119.43
ElecMinimize: 	Step increased F by 1.091594e-07, reducing alpha to 2.190109e-03.
	Linear fluid (dielectric constant: 78.4, screening length: 5.74355 Bohr) occupying 0.785828 of unit cell:	Completed after 0 iterations at t[s]:   5153.14
ElecMinimize: 	Step increased F by 1.437156e-07, reducing alpha to 2.190109e-04.
	Linear fluid (dielectric constant: 78.4, screening length: 5.74355 Bohr) occupying 0.785828 of unit cell:	Completed after 0 iterations at t[s]:   5181.50
ElecMinimize: 	Step increased F by 1.497901e-07, reducing alpha to 2.190109e-05.
ElecMinimize: 	Step failed to reduce F after 3 attempts. Quitting step.
ElecMinimize: 	Undoing step.
	Linear fluid (dielectric constant: 78.4, screening length: 5.74355 Bohr) occupying 0.785828 of unit cell:	Completed after 0 iterations at t[s]:   5215.65
ElecMinimize: 	Step failed: resetting search direction.
	FillingsUpdate:  mu: -0.174329231  nElectrons: 688.000000
	SubspaceRotationAdjust: set factor to 0.271
ElecMinimize: Iter:  27  F: -4132.628252207653532  |grad|_K:  5.318e-08  alpha:  2.190e-05
	Linear fluid (dielectric constant: 78.4, screening length: 5.74355 Bohr) occupying 0.785828 of unit cell:	Completed after 0 iterations at t[s]:   5256.71
ElecMinimize: 	Predicted alpha/alphaT>3.000000, increasing alphaT to 1.956690e-02.
	Linear fluid (dielectric constant: 78.4, screening length: 5.74355 Bohr) occupying 0.785828 of unit cell:	Completed after 0 iterations at t[s]:   5268.40
ElecMinimize: 	Predicted alpha/alphaT>3.000000, increasing alphaT to 5.870070e-02.
	Linear fluid (dielectric constant: 78.4, screening length: 5.74355 Bohr) occupying 0.785829 of unit cell:	Completed after 0 iterations at t[s]:   5282.24
ElecMinimize: 	Predicted alpha/alphaT>3.000000, increasing alphaT to 1.761021e-01.
	Linear fluid (dielectric constant: 78.4, screening length: 5.74355 Bohr) occupying 0.785829 of unit cell:	Completed after 1 iterations at t[s]:   5297.28
ElecMinimize: 	Step increased F by 3.031882e-07, reducing alpha to 3.042951e-02.
	Linear fluid (dielectric constant: 78.4, screening length: 5.74355 Bohr) occupying 0.785829 of unit cell:	Completed after 0 iterations at t[s]:   5332.33
	FillingsUpdate:  mu: -0.174337202  nElectrons: 688.000000
	SubspaceRotationAdjust: set factor to 0.252
ElecMinimize: Iter:  28  F: -4132.628252297782637  |grad|_K:  1.259e-07  alpha:  3.043e-02  linmin:  5.842e-05  t[s]:   5350.74
	Linear fluid (dielectric constant: 78.4, screening length: 5.74355 Bohr) occupying 0.785829 of unit cell:	Completed after 0 iterations at t[s]:   5367.28
	Linear fluid (dielectric constant: 78.4, screening length: 5.74355 Bohr) occupying 0.785829 of unit cell:	Completed after 0 iterations at t[s]:   5382.10
	FillingsUpdate:  mu: -0.174337328  nElectrons: 688.000000
	SubspaceRotationAdjust: set factor to 0.342
ElecMinimize: Iter:  29  F: -4132.628252323736888  |grad|_K:  1.263e-07  alpha:  1.926e-02  linmin: -2.386e-08  t[s]:   5403.29
	Linear fluid (dielectric constant: 78.4, screening length: 5.74355 Bohr) occupying 0.785829 of unit cell:	Completed after 0 iterations at t[s]:   5421.94
ElecMinimize: 	Predicted alpha/alphaT>3.000000, increasing alphaT to 5.777128e-02.
	Linear fluid (dielectric constant: 78.4, screening length: 5.74355 Bohr) occupying 0.785829 of unit cell:	Completed after 1 iterations at t[s]:   5435.61
	Linear fluid (dielectric constant: 78.4, screening length: 5.74355 Bohr) occupying 0.785829 of unit cell:	Completed after 0 iterations at t[s]:   5447.48
	FillingsUpdate:  mu: -0.174330751  nElectrons: 688.000000
	SubspaceRotationAdjust: set factor to 0.417
ElecMinimize: Iter:  30  F: -4132.628252351220908  |grad|_K:  7.612e-08  alpha:  2.962e-02  linmin: -1.413e-05  t[s]:   5468.01
	Linear fluid (dielectric constant: 78.4, screening length: 5.74355 Bohr) occupying 0.785829 of unit cell:	Completed after 0 iterations at t[s]:   5485.94
ElecMinimize: 	Predicted alpha/alphaT>3.000000, increasing alphaT to 8.885612e-02.
	Linear fluid (dielectric constant: 78.4, screening length: 5.74355 Bohr) occupying 0.785829 of unit cell:	Completed after 0 iterations at t[s]:   5502.20
	Linear fluid (dielectric constant: 78.4, screening length: 5.74355 Bohr) occupying 0.785830 of unit cell:	Completed after 1 iterations at t[s]:   5519.05
	FillingsUpdate:  mu: -0.174329760  nElectrons: 688.000000
	SubspaceRotationAdjust: set factor to 0.393
ElecMinimize: Iter:  31  F: -4132.628252380076447  |grad|_K:  8.799e-08  alpha:  1.722e-01  linmin:  4.572e-05  t[s]:   5533.75
	Linear fluid (dielectric constant: 78.4, screening length: 5.74355 Bohr) occupying 0.785831 of unit cell:	Completed after 0 iterations at t[s]:   5551.24
	Linear fluid (dielectric constant: 78.4, screening length: 5.74355 Bohr) occupying 0.785830 of unit cell:	Completed after 0 iterations at t[s]:   5566.80
	FillingsUpdate:  mu: -0.174329972  nElectrons: 688.000000
	SubspaceRotationAdjust: set factor to 0.464
ElecMinimize: Iter:  32  F: -4132.628252411648646  |grad|_K:  9.168e-08  alpha:  5.895e-02  linmin: -8.470e-09  t[s]:   5589.00
	Linear fluid (dielectric constant: 78.4, screening length: 5.74355 Bohr) occupying 0.785831 of unit cell:	Completed after 0 iterations at t[s]:   5607.70
	Linear fluid (dielectric constant: 78.4, screening length: 5.74355 Bohr) occupying 0.785831 of unit cell:	Completed after 1 iterations at t[s]:   5620.24
	FillingsUpdate:  mu: -0.174324492  nElectrons: 688.000000
	SubspaceRotationAdjust: set factor to 0.444
ElecMinimize: Iter:  33  F: -4132.628252435134527  |grad|_K:  6.057e-08  alpha:  1.315e-01  linmin:  5.032e-05  t[s]:   5636.11
	Linear fluid (dielectric constant: 78.4, screening length: 5.74355 Bohr) occupying 0.785831 of unit cell:	Completed after 0 iterations at t[s]:   5653.50
	Linear fluid (dielectric constant: 78.4, screening length: 5.74355 Bohr) occupying 0.785831 of unit cell:	Completed after 0 iterations at t[s]:   5669.75
	FillingsUpdate:  mu: -0.174324603  nElectrons: 688.000000
	SubspaceRotationAdjust: set factor to 0.476
ElecMinimize: Iter:  34  F: -4132.628252449285355  |grad|_K:  5.564e-08  alpha:  6.669e-02  linmin:  9.750e-09  t[s]:   5691.82
	Linear fluid (dielectric constant: 78.4, screening length: 5.74355 Bohr) occupying 0.785831 of unit cell:	Completed after 0 iterations at t[s]:   5708.03
	Linear fluid (dielectric constant: 78.4, screening length: 5.74355 Bohr) occupying 0.785831 of unit cell:	Completed after 0 iterations at t[s]:   5720.92
	FillingsUpdate:  mu: -0.174324709  nElectrons: 688.000000
	SubspaceRotationAdjust: set factor to 0.508
ElecMinimize: Iter:  35  F: -4132.628252572901147  |grad|_K:  5.745e-08  alpha:  1.660e-01  linmin:  9.031e-08  t[s]:   5740.87
	Linear fluid (dielectric constant: 78.4, screening length: 5.74355 Bohr) occupying 0.785831 of unit cell:	Completed after 2 iterations at t[s]:   5759.65
	Linear fluid (dielectric constant: 78.4, screening length: 5.74355 Bohr) occupying 0.785831 of unit cell:	Completed after 0 iterations at t[s]:   5774.90
ElecMinimize: 	Step increased F by 4.050708e-08, reducing alpha to 3.420208e-03.
	Linear fluid (dielectric constant: 78.4, screening length: 5.74355 Bohr) occupying 0.785831 of unit cell:	Completed after 0 iterations at t[s]:   5803.36
	FillingsUpdate:  mu: -0.174344589  nElectrons: 688.000000
	SubspaceRotationAdjust: set factor to 0.473
ElecMinimize: Iter:  36  F: -4132.628252580724620  |grad|_K:  1.296e-07  alpha:  3.420e-03  linmin:  1.515e-05  t[s]:   5825.05
	Linear fluid (dielectric constant: 78.4, screening length: 5.74355 Bohr) occupying 0.785831 of unit cell:	Completed after 0 iterations at t[s]:   5844.43
	Linear fluid (dielectric constant: 78.4, screening length: 5.74355 Bohr) occupying 0.785831 of unit cell:	Completed after 0 iterations at t[s]:   5858.59
	FillingsUpdate:  mu: -0.174344590  nElectrons: 688.000000
	SubspaceRotationAdjust: set factor to 0.554
ElecMinimize: Iter:  37  F: -4132.628252582449022  |grad|_K:  1.256e-07  alpha:  2.759e-03  linmin:  1.032e-08  t[s]:   5874.17
ElecMinimize: Converged (|Delta F|<1.000000e-08 for 2 iters).
Setting wave functions to eigenvectors of Hamiltonian
Single-point solvation energy estimate, DeltaF = -0.030543815045348

# Ionic positions in lattice coordinates:
ion Cu   0.341903888805444   0.262475907019416   0.529467045178285 0
ion Cu   0.841903888805444   0.262475907019416   0.529467045178285 0
ion Cu   0.341903888805444   0.762475907019416   0.529467045178285 0
ion Cu   0.841903888805444   0.762475907019416   0.529467045178285 0
ion Cu   0.091881541581367   0.487624200534802   0.529444189678327 0
ion Cu   0.591881541581367   0.487624200534802   0.529444189678327 0
ion Cu   0.091881541581367   0.987624200534802   0.529444189678327 0
ion Cu   0.591881541581367   0.987624200534802   0.529444189678327 0
ion Cu   0.158093763639779   0.237519427018993   0.470533241902730 0
ion Cu   0.658093763639779   0.237519427018993   0.470533241902730 0
ion Cu   0.158093763639779   0.737519427018993   0.470533241902730 0
ion Cu   0.658093763639779   0.737519427018993   0.470533241902730 0
ion Cu   0.408118729696389   0.012371713402190   0.470555501504694 0
ion Cu   0.908118729696389   0.012371713402190   0.470555501504694 0
ion Cu   0.408118729696389   0.512371713402190   0.470555501504694 0
ion Cu   0.908118729696389   0.512371713402190   0.470555501504694 0
ion Te   0.280506919867320   0.103072306969202   0.586402205062837 0
ion Te   0.780506919867320   0.103072306969202   0.586402205062837 0
ion Te   0.280506919867320   0.603072306969202   0.586402205062837 0
ion Te   0.780506919867320   0.603072306969202   0.586402205062837 0
ion Te   0.219512541157948   0.396929508490296   0.413601533328775 0
ion Te   0.719512541157947   0.396929508490296   0.413601533328775 0
ion Te   0.219512541157948   0.896929508490296   0.413601533328775 0
ion Te   0.719512541157947   0.896929508490296   0.413601533328775 0
ion Te   0.469538226372038   0.352988679974414   0.413644886986710 0
ion Te   0.969538226372038   0.352988679974414   0.413644886986710 0
ion Te   0.469538226372038   0.852988679974414   0.413644886986710 0
ion Te   0.969538226372038   0.852988679974414   0.413644886986710 0
ion Te   0.030452433063295   0.147008051728060   0.586349162571245 0
ion Te   0.530452433063295   0.147008051728060   0.586349162571245 0
ion Te   0.030452433063295   0.647008051728060   0.586349162571245 0
ion Te   0.530452433063295   0.647008051728060   0.586349162571245 0
ion O   0.303593960936857   0.074700203388704   0.486180413905161 0
ion O   0.803593960936857   0.074700203388704   0.486180413905161 0
ion O   0.303593960936857   0.574700203388704   0.486180413905161 0
ion O   0.803593960936857   0.574700203388704   0.486180413905161 0
ion O   0.267792988048350   0.294862221355775   0.439773821376742 0
ion O   0.767792988048350   0.294862221355775   0.439773821376742 0
ion O   0.267792988048350   0.794862221355775   0.439773821376742 0
ion O   0.767792988048350   0.794862221355775   0.439773821376742 0
ion O   0.400160548106583   0.183093230065138   0.590509911528552 0
ion O   0.900160548106583   0.183093230065138   0.590509911528552 0
ion O   0.400160548106583   0.683093230065138   0.590509911528552 0
ion O   0.900160548106583   0.683093230065138   0.590509911528552 0
ion O   0.482174381015276   0.044918631735436   0.560247178498602 0
ion O   0.982174381015276   0.044918631735436   0.560247178498602 0
ion O   0.482174381015276   0.544918631735436   0.560247178498602 0
ion O   0.982174381015276   0.544918631735436   0.560247178498602 0
ion O   0.349833859729915   0.433011548392918   0.409483493433448 0
ion O   0.849833859729915   0.433011548392918   0.409483493433448 0
ion O   0.349833859729915   0.933011548392918   0.409483493433448 0
ion O   0.849833859729915   0.933011548392918   0.409483493433448 0
ion O   0.150160806761382   0.066992974400991   0.590516830908329 0
ion O   0.650160806761382   0.066992974400991   0.590516830908329 0
ion O   0.150160806761382   0.566992974400991   0.590516830908329 0
ion O   0.650160806761382   0.566992974400991   0.590516830908329 0
ion O   0.446429136808484   0.324840510892199   0.513943755456672 0
ion O   0.946429136808484   0.324840510892199   0.513943755456672 0
ion O   0.446429136808484   0.824840510892199   0.513943755456672 0
ion O   0.946429136808484   0.824840510892199   0.513943755456672 0
ion O   0.196409864219235   0.425297758176090   0.513821134494370 0
ion O   0.696409864219235   0.425297758176090   0.513821134494370 0
ion O   0.196409864219235   0.925297758176090   0.513821134494370 0
ion O   0.696409864219235   0.925297758176090   0.513821134494370 0
ion O   0.017815972524454   0.455085533754099   0.439751448458435 0
ion O   0.517815972524454   0.455085533754099   0.439751448458435 0
ion O   0.017815972524454   0.955085533754099   0.439751448458435 0
ion O   0.517815972524454   0.955085533754099   0.439751448458435 0
ion O   0.232212946739429   0.205144852302428   0.560231205739816 0
ion O   0.732212946739429   0.205144852302428   0.560231205739816 0
ion O   0.232212946739429   0.705144852302428   0.560231205739816 0
ion O   0.732212946739429   0.705144852302428   0.560231205739816 0
ion O   0.053565477716424   0.175154863741222   0.486054928948861 0
ion O   0.553565477716424   0.175154863741222   0.486054928948861 0
ion O   0.053565477716424   0.675154863741222   0.486054928948861 0
ion O   0.553565477716424   0.675154863741222   0.486054928948861 0
ion O   0.099841973210041   0.316907832657621   0.409488007518908 0
ion O   0.599841973210041   0.316907832657621   0.409488007518908 0
ion O   0.099841973210041   0.816907832657621   0.409488007518908 0
ion O   0.599841973210041   0.816907832657621   0.409488007518908 0


# Forces in Lattice coordinates:
force Cu   0.082683147958832  -0.000347566916413   0.022562493197586 0
force Cu   0.082683147958832  -0.000347566916413   0.022562493197472 0
force Cu   0.082683147958832  -0.000347566916413   0.022562493197586 0
force Cu   0.082683147958832  -0.000347566916442   0.022562493197586 0
force Cu   0.084338938743050   0.000061438060806   0.021144005905443 0
force Cu   0.084338938743050   0.000061438060806   0.021144005905443 0
force Cu   0.084338938743050   0.000061438060806   0.021144005905329 0
force Cu   0.084338938743079   0.000061438060778   0.021144005905443 0
force Cu  -0.082525691437801   0.001401396696092  -0.023134376898082 0
force Cu  -0.082525691437772   0.001401396696092  -0.023134376897968 0
force Cu  -0.082525691437772   0.001401396696092  -0.023134376898082 0
force Cu  -0.082525691437772   0.001401396696092  -0.023134376898082 0
force Cu  -0.081008448127305  -0.000784666975620  -0.021524823059734 0
force Cu  -0.081008448127305  -0.000784666975592  -0.021524823059734 0
force Cu  -0.081008448127333  -0.000784666975620  -0.021524823059734 0
force Cu  -0.081008448127333  -0.000784666975649  -0.021524823059734 0
force Te   0.325288040485878  -0.282138195088693   1.247515435943491 0
force Te   0.325288040485878  -0.282138195088693   1.247515435943491 0
force Te   0.325288040485875  -0.282138195088693   1.247515435943491 0
force Te   0.325288040485878  -0.282138195088693   1.247515435943490 0
force Te  -0.327785767934046   0.281535211852136  -1.246076373568334 0
force Te  -0.327785767934046   0.281535211852136  -1.246076373568334 0
force Te  -0.327785767934046   0.281535211852136  -1.246076373568448 0
force Te  -0.327785767934046   0.281535211852121  -1.246076373568448 0
force Te  -0.332134864047465  -0.279493909532836  -1.239799064735664 0
force Te  -0.332134864047465  -0.279493909532836  -1.239799064735664 0
force Te  -0.332134864047465  -0.279493909532836  -1.239799064735664 0
force Te  -0.332134864047465  -0.279493909532836  -1.239799064735664 0
force Te   0.334715255947287   0.278114704489695   1.241473340340925 0
force Te   0.334715255947286   0.278114704489695   1.241473340340924 0
force Te   0.334715255947284   0.278114704489708   1.241473340340925 0
force Te   0.334715255947286   0.278114704489709   1.241473340340925 0
force O   0.198001827647197  -0.305525201338899  -1.056558183926903 0
force O   0.198001827647197  -0.305525201338885  -1.056558183926903 0
force O   0.198001827647197  -0.305525201338899  -1.056558183926903 0
force O   0.198001827647197  -0.305525201338899  -1.056558183926903 0
force O   0.149802373548564  -0.701471583846415   0.228341092750610 0
force O   0.149802373548564  -0.701471583846413   0.228341092750610 0
force O   0.149802373548550  -0.701471583846413   0.228341092750724 0
force O   0.149802373548550  -0.701471583846413   0.228341092750724 0
force O  -0.332076977566700   0.297549417835310   0.017495889614874 0
force O  -0.332076977566700   0.297549417835310   0.017495889614987 0
force O  -0.332076977566700   0.297549417835324   0.017495889614874 0
force O  -0.332076977566700   0.297549417835324   0.017495889614874 0
force O  -0.164534544959851  -0.698295931891977  -0.248679029382488 0
force O  -0.164534544959851  -0.698295931891984  -0.248679029382488 0
force O  -0.164534544959865  -0.698295931891984  -0.248679029382487 0
force O  -0.164534544959851  -0.698295931891991  -0.248679029382373 0
force O   0.339911195458669   0.320177838551096  -0.000838021064103 0
force O   0.339911195458669   0.320177838551082  -0.000838021063990 0
force O   0.339911195458669   0.320177838551110  -0.000838021063990 0
force O   0.339911195458668   0.320177838551110  -0.000838021063990 0
force O  -0.329974722457641  -0.297382068758347   0.016601885000832 0
force O  -0.329974722457627  -0.297382068758346   0.016601885000832 0
force O  -0.329974722457627  -0.297382068758346   0.016601885000832 0
force O  -0.329974722457641  -0.297382068758361   0.016601885000831 0
force O  -0.181961419768422  -0.290445753342794   1.052035250554560 0
force O  -0.181961419768422  -0.290445753342794   1.052035250554589 0
force O  -0.181961419768422  -0.290445753342766   1.052035250554532 0
force O  -0.181961419768422  -0.290445753342780   1.052035250554560 0
force O  -0.183795151049750   0.291468552204366   1.056837887653415 0
force O  -0.183795151049779   0.291468552204366   1.056837887653415 0
force O  -0.183795151049750   0.291468552204337   1.056837887653444 0
force O  -0.183795151049750   0.291468552204337   1.056837887653444 0
force O   0.135274595378057   0.707182024773353   0.232634912212323 0
force O   0.135274595378057   0.707182024773353   0.232634912212323 0
force O   0.135274595378057   0.707182024773338   0.232634912212209 0
force O   0.135274595378057   0.707182024773337   0.232634912212323 0
force O  -0.156907576550373   0.695462014866713  -0.234417544167311 0
force O  -0.156907576550372   0.695462014866699  -0.234417544167425 0
force O  -0.156907576550373   0.695462014866701  -0.234417544167424 0
force O  -0.156907576550373   0.695462014866713  -0.234417544167424 0
force O   0.186714180541415   0.295585709395416  -1.052452101572165 0
force O   0.186714180541430   0.295585709395402  -1.052452101572165 0
force O   0.186714180541415   0.295585709395402  -1.052452101572193 0
force O   0.186714180541416   0.295585709395402  -1.052452101572193 0
force O   0.331856246187083  -0.300609562062182  -0.011776577151967 0
force O   0.331856246187083  -0.300609562062182  -0.011776577151741 0
force O   0.331856246187083  -0.300609562062182  -0.011776577151854 0
force O   0.331856246187083  -0.300609562062196  -0.011776577151855 0

# Energy components:
   A_diel =       -0.0456939734376620
   Eewald =    13047.1316294947864662
       EH =    16744.2417669230308093
     Eloc =   -34775.7670423447052599
      Enl =      649.0906009933478344
      Exc =     -600.2576906116617010
 Exc_core =       83.1532939320783555
       KE =      719.9253591644273911
-------------------------------------
     Etot =    -4132.5277764221318648
       TS =        0.1004761603167594
-------------------------------------
        F =    -4132.6282525824490222

IonicMinimize: Iter:   0  F: -4132.628252582449022  |grad|_K:  0.000e+00  t[s]:   5892.05
IonicMinimize: Converged (|grad|_K<1.000000e-04).

#--- Lowdin population analysis ---
# oxidation-state Cu +0.322 +0.322 +0.322 +0.322 +0.322 +0.322 +0.322 +0.322 +0.323 +0.323 +0.323 +0.323 +0.328 +0.328 +0.328 +0.328
# oxidation-state Te +1.870 +1.870 +1.870 +1.870 +1.870 +1.870 +1.870 +1.870 +1.870 +1.870 +1.870 +1.870 +1.870 +1.870 +1.870 +1.870
# oxidation-state O -0.649 -0.649 -0.649 -0.649 -0.564 -0.564 -0.564 -0.564 -0.700 -0.700 -0.700 -0.700 -0.563 -0.563 -0.563 -0.563 -0.699 -0.699 -0.699 -0.699 -0.700 -0.700 -0.700 -0.700 -0.650 -0.650 -0.650 -0.650 -0.650 -0.650 -0.650 -0.650 -0.563 -0.563 -0.563 -0.563 -0.564 -0.564 -0.564 -0.564 -0.649 -0.649 -0.649 -0.649 -0.699 -0.699 -0.699 -0.699


Dumping 'NbTe2.fillings' ... done
Dumping 'NbTe2.wfns' ... done
Dumping 'NbTe2.fluidState' ... done
Dumping 'NbTe2.eigenvals' ... done
End date and time: Fri Jul 24 23:29:04 2020  (Duration: 0-1:38:24.31)
Done!
