
*************** JDFTx 1.5.0  ***************

Start date and time: Tue Jul 14 11:54:34 2020
Executable jdftx_gpu with command-line: -i Neutral.in -o Neutral.out
Running on hosts (process indices):  amax (0-3)
Divided in process groups (process indices):  0 (0)  1 (1)  2 (2)  3 (3)
gpuInit: Found compatible cuda device 0 'Tesla K80'
gpuInit: Found compatible cuda device 1 'Tesla K80'
gpuInit: Found compatible cuda device 2 'Tesla K80'
gpuInit: Found compatible cuda device 3 'Tesla K80'
gpuInit: Selected device 0
Resource initialization completed at t[s]:      6.38
Run totals: 4 processes, 24 threads, 4 GPUs


Input parsed successfully to the following command list (including defaults):

basis kpoint-dependent
cache-projectors no
coords-type Lattice
core-overlap-check none
coulomb-interaction Slab 001
coulomb-truncation-embed 0 0 0.5
davidson-band-ratio 1.1
dump End State
dump-name NbTe2.$VAR
elec-cutoff 20 100
elec-eigen-algo Davidson
elec-ex-corr gga-PBE
elec-smearing Gauss 0.0073499
electronic-minimize  \
	dirUpdateScheme      FletcherReeves \
	linminMethod         DirUpdateRecommended \
	nIterations          500 \
	history              15 \
	knormThreshold       0 \
	energyDiffThreshold  1e-08 \
	nEnergyDiff          2 \
	alphaTstart          1 \
	alphaTmin            1e-10 \
	updateTestStepSize   yes \
	alphaTreduceFactor   0.1 \
	alphaTincreaseFactor 3 \
	nAlphaAdjustMax      3 \
	wolfeEnergy          0.0001 \
	wolfeGradient        0.9 \
	fdTest               no
exchange-regularization WignerSeitzTruncated
fluid LinearPCM 298.000000 1.013250
fluid-anion F- 1 MeanFieldLJ \
	epsBulk 1 \
	pMol 0 \
	epsInf 1 \
	Pvap 0 \
	sigmaBulk 0 \
	Rvdw 2.24877 \
	Res 0 \
	tauNuc 343133
fluid-cation Na+ 1 MeanFieldLJ \
	epsBulk 1 \
	pMol 0 \
	epsInf 1 \
	Pvap 0 \
	sigmaBulk 0 \
	Rvdw 2.19208 \
	Res 0 \
	tauNuc 343133
fluid-ex-corr lda-TF lda-PZ
fluid-gummel-loop 10 1.000000e-05
fluid-minimize  \
	dirUpdateScheme      PolakRibiere \
	linminMethod         DirUpdateRecommended \
	nIterations          400 \
	history              15 \
	knormThreshold       1e-11 \
	energyDiffThreshold  0 \
	nEnergyDiff          2 \
	alphaTstart          1 \
	alphaTmin            1e-10 \
	updateTestStepSize   yes \
	alphaTreduceFactor   0.1 \
	alphaTincreaseFactor 3 \
	nAlphaAdjustMax      6 \
	wolfeEnergy          0.0001 \
	wolfeGradient        0.9 \
	fdTest               no
fluid-solvent H2O 55.338 ScalarEOS \
	epsBulk 78.4 \
	pMol 0.92466 \
	epsInf 1.77 \
	Pvap 1.06736e-10 \
	sigmaBulk 4.62e-05 \
	Rvdw 2.61727 \
	Res 1.42 \
	tauNuc 343133 \
	poleEl 15 7 1
forces-output-coords Positions
initial-state NbTe2.$VAR
ion Bi   0.333393724019259   0.166718146009632   0.525129832052748 0
ion Bi   0.833324400990367   0.166718146009632   0.525129832052748 0
ion Bi   0.333347537999998   0.666695044000001   0.525101656776508 0
ion Bi   0.833324420990369   0.666648809980743   0.525129832052748 0
ion Bi   0.166681146228738   0.333362249457483   0.475017456304360 0
ion Bi   0.666651285999997   0.333302443000001   0.475039093231116 0
ion Bi   0.166681152228738   0.833272554771257   0.475017456304360 0
ion Bi   0.666591470542518   0.833272554771257   0.475017456304360 0
ion Bi   0.333323830116503   0.166655931058253   0.358937364679631 0
ion Bi   0.833332109941748   0.166655931058253   0.358937364679631 0
ion Bi   0.333329368999998   0.666658707000003   0.358919552822436 0
ion Bi   0.833332128941746   0.666664226883500   0.358937364679631 0
ion Bi   0.167369018839191   0.334738021678388   0.641260726285407 0
ion Bi   0.666669642999999   0.333339270000003   0.641151517281227 0
ion Bi   0.167369054839194   0.832639942160808   0.641260726285407 0
ion Bi   0.665270927321617   0.832639942160808   0.641260726285407 0
ion Bi   0.000003126000003   0.000006198999998   0.253156711708140 0
ion Bi   0.500015477395271   0.000030955790546   0.253158817850937 0
ion Bi  -0.000021609790547   0.499993834604725   0.253158817850937 0
ion Bi   0.500015497395273   0.499993834604725   0.253158817850937 0
ion Bi   0.999995058000003   0.999990179999998   0.747701917698218 0
ion Bi   0.506725890111207   0.013451844222404   0.746183613619382 0
ion Bi   0.986533389777596   0.493259364888799   0.746183613619382 0
ion Bi   0.506725886111206   0.493259364888799   0.746183613619382 0
ion Se   0.000016017999997   0.000031989000000   0.402614318120630 0
ion Se   0.499919273273289  -0.000161566453428   0.402579340019883 0
ion Se   0.000209603453427   0.500128792726716   0.402579340019883 0
ion Se   0.499919298273288   0.500128792726716   0.402579340019883 0
ion Se   0.999975966999997   0.999951885000002   0.597775388583089 0
ion Se   0.499268973813762  -0.001461987372481   0.597626098121775 0
ion Se   0.001389803372485   0.500658773186239   0.597626098121775 0
ion Se   0.499268965813761   0.500658773186239   0.597626098121775 0
ion Se   0.336180473279077   0.168114785639541   0.692825463851383 0
ion Se   0.831934293360459   0.168114785639541   0.692825463851383 0
ion Se   0.333349695999999   0.666699414999997   0.694787779050537 0
ion Se   0.831934321360462   0.663868609720917   0.692825463851383 0
ion Se   0.166631982016740   0.333263919033480   0.306940678822166 0
ion Se   0.666658673999997   0.333317219000001   0.306958273485648 0
ion Se   0.166632004016742   0.833343916983259   0.306940678822166 0
ion Se   0.666712009966522   0.833343916983259   0.306940678822166 0
ion Se   0.333345425551017   0.166660552275509   0.210858860375146 0
ion Se   0.833315133724497   0.166660552275509   0.210858860375146 0
ion Se   0.333325227000003   0.666650421000000   0.210861620583882 0
ion Se   0.833315129724497   0.666630226448987   0.210858860375146 0
ion Se   0.168017956918851   0.336035898837711   0.787571718570039 0
ion Se   0.168017993918857   0.832018110081146   0.787571718570039 0
ion Se   0.664000157162296   0.832018110081146   0.787571718570039 0
ion-species GBRV/$ID_pbe.uspp
ion-width Ecut
ionic-minimize  \
	dirUpdateScheme      L-BFGS \
	linminMethod         DirUpdateRecommended \
	nIterations          0 \
	history              15 \
	knormThreshold       0.0001 \
	energyDiffThreshold  1e-06 \
	nEnergyDiff          2 \
	alphaTstart          1 \
	alphaTmin            1e-10 \
	updateTestStepSize   yes \
	alphaTreduceFactor   0.1 \
	alphaTincreaseFactor 3 \
	nAlphaAdjustMax      3 \
	wolfeEnergy          0.0001 \
	wolfeGradient        0.9 \
	fdTest               no
kpoint   0.000000000000   0.000000000000   0.000000000000  1.00000000000000
kpoint-folding 5 5 1 
latt-move-scale 1 1 1
latt-scale 1 1 1 
lattice Triclinic 15.9479 15.9488 68.004 90 90 119.998
lattice-minimize  \
	dirUpdateScheme      L-BFGS \
	linminMethod         DirUpdateRecommended \
	nIterations          0 \
	history              15 \
	knormThreshold       0 \
	energyDiffThreshold  1e-06 \
	nEnergyDiff          2 \
	alphaTstart          1 \
	alphaTmin            1e-10 \
	updateTestStepSize   yes \
	alphaTreduceFactor   0.1 \
	alphaTincreaseFactor 3 \
	nAlphaAdjustMax      3 \
	wolfeEnergy          0.0001 \
	wolfeGradient        0.9 \
	fdTest               no
lcao-params -1 1e-06 0.0073499
pcm-variant CANDLE
spintype no-spin
subspace-rotation-factor 1 yes
symmetries automatic
symmetry-threshold 0.0001



---------- Setting up symmetries ----------

Found 24 point-group symmetries of the bravais lattice
Found 2 space-group symmetries with basis
Applied RMS atom displacement 4.14554e-07 bohrs to make symmetries exact.

---------- Initializing the Grid ----------
R = 
[    15.9479   -7.97396          0  ]
[          0    13.8123          0  ]
[          0          0     68.004  ]
unit cell volume = 14979.8
G =
[   0.393981   0.227449         -0  ]
[          0   0.454897          0  ]
[          0         -0  0.0923943  ]
Minimum fftbox size, Smin = [  72  72  308  ]
Chosen fftbox size, S = [  72  72  320  ]

---------- Initializing tighter grid for wavefunction operations ----------
R = 
[    15.9479   -7.97396          0  ]
[          0    13.8123          0  ]
[          0          0     68.004  ]
unit cell volume = 14979.8
G =
[   0.393981   0.227449         -0  ]
[          0   0.454897          0  ]
[          0         -0  0.0923943  ]
Minimum fftbox size, Smin = [  68  68  276  ]
Chosen fftbox size, S = [  70  70  280  ]

---------- Exchange Correlation functional ----------
Initalized PBE GGA exchange.
Initalized PBE GGA correlation.

---------- Setting up pseudopotentials ----------
Width of ionic core gaussian charges (only for fluid interactions / plotting) set to 0.397384

Reading pseudopotential file '/home/guoxy/vasp/jdftx-1.5.0/build/pseudopotentials/GBRV/bi_pbe.uspp':
  Title: Bi.  Created by USPP 7.3.6 on 14-9-2013
  Reference state energy: -92.204004.  15 valence electrons in orbitals:
    |520>  occupation: 10  eigenvalue: -1.293263
    |600>  occupation: 2  eigenvalue: -0.812524
    |610>  occupation: 2  eigenvalue: -0.420386
  lMax: 2  lLocal: 3  QijEcut: 5
  6 projectors sampled on a log grid with 747 points:
    l: 0  eig: -0.812524  rCut: 2.5
    l: 0  eig: 0.500000  rCut: 2.5
    l: 1  eig: -0.420386  rCut: 2.5
    l: 1  eig: 1.000000  rCut: 2.5
    l: 2  eig: -1.293263  rCut: 2.3
    l: 2  eig: -0.500000  rCut: 2.3
  Partial core density with radius 1
  Transforming core density to a uniform radial grid of dG=0.02 with 1605 points.
  Transforming local potential to a uniform radial grid of dG=0.02 with 1605 points.
  Transforming nonlocal projectors to a uniform radial grid of dG=0.02 with 432 points.
  Transforming density augmentations to a uniform radial grid of dG=0.02 with 1605 points.
  Transforming atomic orbitals to a uniform radial grid of dG=0.02 with 432 points.
  Core radius for overlap checks: 2.50 bohrs.

Reading pseudopotential file '/home/guoxy/vasp/jdftx-1.5.0/build/pseudopotentials/GBRV/se_pbe.uspp':
  Title: Se.  Created by USPP 7.3.6 on 14-9-2013
  Reference state energy: -21.672887.  6 valence electrons in orbitals:
    |400>  occupation: 2  eigenvalue: -0.635284
    |410>  occupation: 4  eigenvalue: -0.239295
  lMax: 2  lLocal: 3  QijEcut: 5
  6 projectors sampled on a log grid with 625 points:
    l: 0  eig: -0.635278  rCut: 1.5
    l: 0  eig: 0.500000  rCut: 1.5
    l: 1  eig: -0.239295  rCut: 1.5
    l: 1  eig: 0.500000  rCut: 1.5
    l: 2  eig: 0.000000  rCut: 1.8
    l: 2  eig: 1.000000  rCut: 1.8
  Partial core density with radius 1.2
  Transforming core density to a uniform radial grid of dG=0.02 with 1605 points.
  Transforming local potential to a uniform radial grid of dG=0.02 with 1605 points.
  Transforming nonlocal projectors to a uniform radial grid of dG=0.02 with 432 points.
  Transforming density augmentations to a uniform radial grid of dG=0.02 with 1605 points.
  Transforming atomic orbitals to a uniform radial grid of dG=0.02 with 432 points.
  Core radius for overlap checks: 1.80 bohrs.

Initialized 2 species with 47 total atoms.

Folded 1 k-points by 5x5x1 to 25 k-points.

---------- Setting up k-points, bands, fillings ----------
Adding inversion symmetry to k-mesh for non-inversion-symmetric unit cell.
Reduced to 9 k-points under symmetry. 
Computing the number of bands and number of electrons
Calculating initial fillings.
nElectrons: 498.000000   nBands: 308   nStates: 9

----- Setting up reduced wavefunction bases (one per k-point) -----
average nbasis = 64007.320 , ideal nbasis = 63994.731

---------- Setting up coulomb interaction ----------
Fluid mode embedding: using embedded box, but periodic Coulomb kernel.
(Fluid response is responsible for (approximate) separation between periodic images.)
Setting up double-sized grid for truncated Coulomb potentials:
R = 
[    15.9479   -7.97396          0  ]
[          0    13.8123          0  ]
[          0          0    136.008  ]
unit cell volume = 29959.5
G =
[   0.393981   0.227449         -0  ]
[          0   0.454897          0  ]
[          0         -0  0.0461972  ]
Chosen fftbox size, S = [  72  72  640  ]
Integer grid location selected as the embedding center:
   Grid: [  0  0  160  ]
   Lattice: [  0  0  0.5  ]
   Cartesian: [  0  0  34.002  ]
Constructing Wigner-Seitz cell: 8 faces (6 quadrilaterals, 2 hexagons)
Range-separation parameter for embedded mesh potentials due to point charges: 0.593756 bohrs.

Initializing van der Waals corrections
	NOTE: vdW corrections apply only for interactions with fluid.
	Bi:  C6:  893.28 Eh-a0^6  R0: 3.555 a0 (WARNING: beyond Grimme's data set)
	Se:  C6:  219.24 Eh-a0^6  R0: 3.347 a0

---------- Setting up ewald sum ----------
Optimum gaussian width for ewald sums = 6.522371 bohr.
Real space sum over 845 unit cells with max indices [  6  6  2  ]
Reciprocal space sum over 8107 terms with max indices [  5  5  33  ]

---------- Allocating electronic variables ----------
Initializing wave functions:  linear combination of atomic orbitals
Bi pseudo-atom occupations:   s ( 2 )  p ( 3 )  d ( 10 )
Se pseudo-atom occupations:   s ( 2 )  p ( 4 )
	FillingsUpdate:  mu: -0.082814317  nElectrons: 498.000000
LCAOMinimize: Iter:   0  F: -1942.4261376639124137  |grad|_K:  4.229e-03  alpha:  1.000e+00
	FillingsUpdate:  mu: -0.197292774  nElectrons: 498.000000
LCAOMinimize: Iter:   1  F: -1943.2412278959739069  |grad|_K:  3.296e-03  alpha:  7.021e-02  linmin: -1.221e-01  cgtest:  4.814e-01  t[s]:     44.21
	FillingsUpdate:  mu: +0.066150733  nElectrons: 498.000000
LCAOMinimize: Iter:   2  F: -1943.7549080040078024  |grad|_K:  4.681e-03  alpha:  9.712e-02  linmin:  8.311e-03  cgtest: -2.234e-01  t[s]:     59.47
	FillingsUpdate:  mu: +0.081585723  nElectrons: 498.000000
LCAOMinimize: Iter:   3  F: -1943.9545128746694900  |grad|_K:  3.772e-03  alpha:  1.584e-02  linmin: -4.653e-02  cgtest:  9.687e-01  t[s]:     75.30
LCAOMinimize: Encountered beta<0, resetting CG.
	FillingsUpdate:  mu: -0.003080123  nElectrons: 498.000000
LCAOMinimize: Iter:   4  F: -1944.1169694274483390  |grad|_K:  1.383e-03  alpha:  2.584e-02  linmin: -3.988e-02  cgtest:  1.549e-01  t[s]:     90.75
LCAOMinimize: 	Predicted alpha/alphaT>3.000000, increasing alphaT to 7.752645e-02.
LCAOMinimize: 	Predicted alpha/alphaT>3.000000, increasing alphaT to 2.325793e-01.
	FillingsUpdate:  mu: -0.096246864  nElectrons: 498.000000
LCAOMinimize: Iter:   5  F: -1944.3101985887522005  |grad|_K:  1.776e-03  alpha:  2.229e-01  linmin:  3.018e-02  cgtest: -8.896e-02  t[s]:    115.17
	FillingsUpdate:  mu: -0.097625613  nElectrons: 498.000000
LCAOMinimize: Iter:   6  F: -1944.3602801779052243  |grad|_K:  1.239e-03  alpha:  4.627e-02  linmin: -8.991e-03  cgtest:  6.749e-01  t[s]:    130.52
	FillingsUpdate:  mu: -0.026510476  nElectrons: 498.000000
LCAOMinimize: Iter:   7  F: -1944.4023301431293476  |grad|_K:  6.698e-04  alpha:  6.376e-02  linmin:  1.906e-03  cgtest: -3.471e-02  t[s]:    145.68
	FillingsUpdate:  mu: -0.029148772  nElectrons: 498.000000
LCAOMinimize: Iter:   8  F: -1944.4140024536156943  |grad|_K:  3.947e-04  alpha:  6.072e-02  linmin:  5.945e-03  cgtest:  1.407e-02  t[s]:    161.20
	FillingsUpdate:  mu: -0.032578739  nElectrons: 498.000000
LCAOMinimize: Iter:   9  F: -1944.4166051470365346  |grad|_K:  1.579e-04  alpha:  3.857e-02  linmin: -1.713e-03  cgtest:  7.857e-02  t[s]:    176.27
LCAOMinimize: 	Predicted alpha/alphaT>3.000000, increasing alphaT to 1.157228e-01.
	FillingsUpdate:  mu: -0.031434173  nElectrons: 498.000000
LCAOMinimize: Iter:  10  F: -1944.4184731061184266  |grad|_K:  1.139e-04  alpha:  1.750e-01  linmin:  6.266e-03  cgtest: -3.127e-02  t[s]:    196.38
	FillingsUpdate:  mu: -0.028803938  nElectrons: 498.000000
LCAOMinimize: Iter:  11  F: -1944.4192417149733956  |grad|_K:  5.331e-05  alpha:  1.398e-01  linmin:  1.330e-03  cgtest:  5.787e-02  t[s]:    211.79
	FillingsUpdate:  mu: -0.031608988  nElectrons: 498.000000
LCAOMinimize: Iter:  12  F: -1944.4193056673777846  |grad|_K:  2.574e-05  alpha:  5.223e-02  linmin: -1.794e-03  cgtest:  1.422e-02  t[s]:    226.89
	FillingsUpdate:  mu: -0.030703456  nElectrons: 498.000000
LCAOMinimize: Iter:  13  F: -1944.4193381673721888  |grad|_K:  3.454e-05  alpha:  1.137e-01  linmin: -2.390e-05  cgtest: -6.499e-03  t[s]:    242.37
	FillingsUpdate:  mu: -0.029771596  nElectrons: 498.000000
LCAOMinimize: Iter:  14  F: -1944.4193658774804589  |grad|_K:  1.383e-05  alpha:  5.399e-02  linmin: -2.631e-04  cgtest:  1.505e-02  t[s]:    257.78
LCAOMinimize: 	Predicted alpha/alphaT>3.000000, increasing alphaT to 1.619696e-01.
	FillingsUpdate:  mu: -0.030252554  nElectrons: 498.000000
LCAOMinimize: Iter:  15  F: -1944.4193835549756386  |grad|_K:  9.289e-06  alpha:  2.150e-01  linmin: -1.312e-04  cgtest:  1.124e-04  t[s]:    277.94
	FillingsUpdate:  mu: -0.030194724  nElectrons: 498.000000
LCAOMinimize: Iter:  16  F: -1944.4193902649096799  |grad|_K:  8.908e-06  alpha:  1.809e-01  linmin: -2.770e-07  cgtest: -1.018e-03  t[s]:    293.91
	FillingsUpdate:  mu: -0.030210638  nElectrons: 498.000000
LCAOMinimize: Iter:  17  F: -1944.4193916550771064  |grad|_K:  5.392e-06  alpha:  4.069e-02  linmin: -3.719e-04  cgtest:  3.238e-03  t[s]:    309.41
	FillingsUpdate:  mu: -0.030067951  nElectrons: 498.000000
LCAOMinimize: Iter:  18  F: -1944.4193926393261336  |grad|_K:  1.244e-06  alpha:  7.867e-02  linmin:  2.311e-04  cgtest: -1.381e-02  t[s]:    324.67
	FillingsUpdate:  mu: -0.030166973  nElectrons: 498.000000
LCAOMinimize: Iter:  19  F: -1944.4193927010146581  |grad|_K:  1.237e-06  alpha:  9.267e-02  linmin: -9.416e-05  cgtest:  1.056e-03  t[s]:    340.50
LCAOMinimize: Converged (|Delta F|<1.000000e-06 for 2 iters).
----- createFluidSolver() ----- (Fluid-side solver setup)
   Initializing fluid molecule 'H2O'
     Initializing site 'O'
       Electron density: proportional to exp(-r/0.36935)*erfc((r-0.51523)/0.36823) with norm 6.826
       Charge density: gaussian nuclear width 0.478731 with net site charge 0.826
       Polarizability: cuspless exponential with width 0.32 and norm 3.73
       Hard sphere radius: 2.57003 bohrs
       Positions in reference frame:
         [ +0.000000 +0.000000 +0.000000 ]
     Initializing site 'H'
       Electron density: proportional to exp(-r/0.34641)*erfc((r-0)/0.390882) with norm 0.587
       Charge density: gaussian nuclear width 0.377945 with net site charge -0.413
       Polarizability: cuspless exponential with width 0.39 and norm 3.3
       Positions in reference frame:
         [ +0.000000 -1.441945 +1.122523 ]
         [ +0.000000 +1.441945 +1.122523 ]
     Net charge: 0   dipole magnitude: 0.927204
     Initializing spherical shell mfKernel with radius 2.61727 Bohr
     deltaS corrections:
       site 'O': -7.54299
       site 'H': -6.83917
   Initializing fluid molecule 'Na+'
     Initializing site 'Na'
       Electron density: proportional to exp(-r/0.19682)*erfc((r-0.71491)/0.41314) with norm 8.1383
       Charge density: gaussian nuclear width 0.365347 with net site charge -1
       Hard sphere radius: 1.86327 bohrs
       Positions in reference frame:
         [ +0.000000 +0.000000 +0.000000 ]
     Net charge: -1   dipole magnitude: 0
     Initializing gaussian mfKernel with width: 1.55004 Bohr
     deltaS corrections:
       site 'Na': -22.3555
   Initializing fluid molecule 'F-'
     Initializing site 'F'
       Electron density: proportional to exp(-r/0.38886)*erfc((r-0)/0.438782) with norm 8
       Charge density: gaussian nuclear width 0.374796 with net site charge 1
       Hard sphere radius: 2.39995 bohrs
       Positions in reference frame:
         [ +0.000000 +0.000000 +0.000000 ]
     Net charge: 1   dipole magnitude: 0
     Initializing gaussian mfKernel with width: 1.59012 Bohr
     deltaS corrections:
       site 'F': -9.04335

Correction to mu due to finite nuclear width = -0.0164928
   Cavity determined by nc: 0.00142 and sigma: 0.707107
   Nonlocal vdW cavity from gaussian model electron density with norm = 8 and sigma = 0.993594 bohr
   Charge asymmetry in cavity with sensitivity pCavity = 36.5 e-bohr/Eh
   Electrostatic cavity expanded by eta = 1.46 bohrs
   Weighted density cavitation model constrained by Nbulk: 0.0049383 bohr^-3, Pvap: 3.14029 kPa, Rvdw: 2.61727 bohr and sigmaBulk: 4.62e-05 Eh/bohr^2 at T: 298 K.
   Weighted density dispersion model using vdW pair potentials with single solvent site with sqrtC6eff: 0.77 SI.


---- Citations for features of the code used in this run ----

   Software package:
      R. Sundararaman, K. Letchworth-Weaver, K.A. Schwarz, D. Gunceler, Y. Ozhabes and T.A. Arias, 'JDFTx: software for joint density-functional theory', SoftwareX 6, 278 (2017)

   gga-PBE exchange-correlation functional:
      J.P. Perdew, K. Burke and M. Ernzerhof, Phys. Rev. Lett. 77, 3865 (1996)

   Pseudopotentials:
      KF Garrity, JW Bennett, KM Rabe and D Vanderbilt, Comput. Mater. Sci. 81, 446 (2014)

   Truncated Coulomb potentials:
      R. Sundararaman and T.A. Arias, Phys. Rev. B 87, 165122 (2013)

   Van der Waals correction pair-potentials:
      S. Grimme, J. Comput. Chem. 27, 1787 (2006)

   Charge-asymmetric nonlocally-determined local-electric (CANDLE) solvation model:
      R. Sundararaman and W.A. Goddard III, J. Chem. Phys. 142, 064107 (2015)

   Total energy minimization with Auxiliary Hamiltonian:
      C. Freysoldt, S. Boeck, and J. Neugebauer, Phys. Rev. B 79, 241103(R) (2009)

This list may not be complete. Please suggest additional citations or
report any other bugs at https://github.com/shankar1729/jdftx/issues

Initialization completed successfully at t[s]:    344.59

Fluid solver invoked on fresh (partially random / LCAO) wavefunctions
Running a vacuum solve first:

-------- Initial electronic minimization -----------
	FillingsUpdate:  mu: -0.030166973  nElectrons: 498.000000
ElecMinimize: Iter:   0  F: -1944.419392701029665  |grad|_K:  6.362e-05  alpha:  1.000e+00
	FillingsUpdate:  mu: -0.011690717  nElectrons: 498.000000
	SubspaceRotationAdjust: set factor to 1
ElecMinimize: Iter:   1  F: -1945.039440732073899  |grad|_K:  5.358e-05  alpha:  8.607e-01  linmin:  5.098e-06  t[s]:    385.10
	FillingsUpdate:  mu: -0.011810712  nElectrons: 498.000000
	SubspaceRotationAdjust: set factor to 0.703
ElecMinimize: Iter:   2  F: -1945.272052109397009  |grad|_K:  4.032e-05  alpha:  4.633e-01  linmin:  4.705e-05  t[s]:    410.50
	FillingsUpdate:  mu: -0.039610971  nElectrons: 498.000000
	SubspaceRotationAdjust: set factor to 0.759
ElecMinimize: Iter:   3  F: -1945.301484073275333  |grad|_K:  2.588e-05  alpha:  7.918e-02  linmin: -2.164e-03  t[s]:    436.30
	FillingsUpdate:  mu: -0.002274881  nElectrons: 498.000000
	SubspaceRotationAdjust: set factor to 0.58
ElecMinimize: Iter:   4  F: -1945.331735652576299  |grad|_K:  2.434e-05  alpha:  1.997e-01  linmin: -3.848e-05  t[s]:    462.60
	FillingsUpdate:  mu: +0.006226597  nElectrons: 498.000000
	SubspaceRotationAdjust: set factor to 0.332
ElecMinimize: Iter:   5  F: -1945.348831266516527  |grad|_K:  3.041e-05  alpha:  1.618e-01  linmin: -1.345e-05  t[s]:    489.40
	FillingsUpdate:  mu: -0.003897476  nElectrons: 498.000000
	SubspaceRotationAdjust: set factor to 0.296
ElecMinimize: Iter:   6  F: -1945.366703403495421  |grad|_K:  1.516e-05  alpha:  1.086e-01  linmin: -4.036e-07  t[s]:    516.63
	FillingsUpdate:  mu: -0.035355290  nElectrons: 498.000000
	SubspaceRotationAdjust: set factor to 0.252
ElecMinimize: Iter:   7  F: -1945.374934450825549  |grad|_K:  1.147e-05  alpha:  2.025e-01  linmin:  2.833e-05  t[s]:    545.51
	FillingsUpdate:  mu: -0.041571510  nElectrons: 498.000000
	SubspaceRotationAdjust: set factor to 0.187
ElecMinimize: Iter:   8  F: -1945.382523155093850  |grad|_K:  1.073e-05  alpha:  3.282e-01  linmin: -3.825e-06  t[s]:    573.99
	FillingsUpdate:  mu: -0.025400438  nElectrons: 498.000000
	SubspaceRotationAdjust: set factor to 0.187
ElecMinimize: Iter:   9  F: -1945.386500005812650  |grad|_K:  7.689e-06  alpha:  1.955e-01  linmin:  1.865e-05  t[s]:    600.02
	FillingsUpdate:  mu: -0.014883899  nElectrons: 498.000000
	SubspaceRotationAdjust: set factor to 0.219
ElecMinimize: Iter:  10  F: -1945.390330716641756  |grad|_K:  5.699e-06  alpha:  3.662e-01  linmin:  1.249e-04  t[s]:    626.89
	FillingsUpdate:  mu: -0.020343268  nElectrons: 498.000000
	SubspaceRotationAdjust: set factor to 0.181
ElecMinimize: Iter:  11  F: -1945.391650098457148  |grad|_K:  4.541e-06  alpha:  2.272e-01  linmin: -2.365e-05  t[s]:    654.56
	FillingsUpdate:  mu: -0.025122154  nElectrons: 498.000000
	SubspaceRotationAdjust: set factor to 0.167
ElecMinimize: Iter:  12  F: -1945.392825659974733  |grad|_K:  4.241e-06  alpha:  3.203e-01  linmin:  7.479e-05  t[s]:    683.65
	FillingsUpdate:  mu: -0.021399595  nElectrons: 498.000000
	SubspaceRotationAdjust: set factor to 0.254
ElecMinimize: Iter:  13  F: -1945.393880134877691  |grad|_K:  2.883e-06  alpha:  3.312e-01  linmin:  2.307e-06  t[s]:    711.63
	FillingsUpdate:  mu: -0.019307553  nElectrons: 498.000000
	SubspaceRotationAdjust: set factor to 0.209
ElecMinimize: Iter:  14  F: -1945.394263564015318  |grad|_K:  2.664e-06  alpha:  2.595e-01  linmin: -3.142e-06  t[s]:    741.11
	FillingsUpdate:  mu: -0.020745746  nElectrons: 498.000000
	SubspaceRotationAdjust: set factor to 0.217
ElecMinimize: Iter:  15  F: -1945.394695302637729  |grad|_K:  1.972e-06  alpha:  3.420e-01  linmin:  2.602e-06  t[s]:    769.94
	FillingsUpdate:  mu: -0.024011518  nElectrons: 498.000000
	SubspaceRotationAdjust: set factor to 0.211
ElecMinimize: Iter:  16  F: -1945.394942122778502  |grad|_K:  1.570e-06  alpha:  3.572e-01  linmin:  5.940e-06  t[s]:    798.48
	FillingsUpdate:  mu: -0.021233360  nElectrons: 498.000000
	SubspaceRotationAdjust: set factor to 0.229
ElecMinimize: Iter:  17  F: -1945.395087104811182  |grad|_K:  1.019e-06  alpha:  3.313e-01  linmin:  1.011e-06  t[s]:    826.60
	FillingsUpdate:  mu: -0.019359827  nElectrons: 498.000000
	SubspaceRotationAdjust: set factor to 0.229
ElecMinimize: Iter:  18  F: -1945.395182465448443  |grad|_K:  1.016e-06  alpha:  5.165e-01  linmin:  1.489e-06  t[s]:    853.88
	FillingsUpdate:  mu: -0.021249627  nElectrons: 498.000000
	SubspaceRotationAdjust: set factor to 0.218
ElecMinimize: Iter:  19  F: -1945.395240989757212  |grad|_K:  7.522e-07  alpha:  3.185e-01  linmin: -2.004e-07  t[s]:    880.95
	FillingsUpdate:  mu: -0.022084888  nElectrons: 498.000000
	SubspaceRotationAdjust: set factor to 0.228
ElecMinimize: Iter:  20  F: -1945.395288800908929  |grad|_K:  6.575e-07  alpha:  4.750e-01  linmin: -7.297e-07  t[s]:    909.44
	FillingsUpdate:  mu: -0.021073827  nElectrons: 498.000000
	SubspaceRotationAdjust: set factor to 0.186
ElecMinimize: Iter:  21  F: -1945.395311723789064  |grad|_K:  5.976e-07  alpha:  2.984e-01  linmin:  4.096e-07  t[s]:    938.39
	FillingsUpdate:  mu: -0.020954233  nElectrons: 498.000000
	SubspaceRotationAdjust: set factor to 0.185
ElecMinimize: Iter:  22  F: -1945.395332843505003  |grad|_K:  4.975e-07  alpha:  3.325e-01  linmin: -2.285e-07  t[s]:    967.25
	FillingsUpdate:  mu: -0.021382081  nElectrons: 498.000000
	SubspaceRotationAdjust: set factor to 0.151
ElecMinimize: Iter:  23  F: -1945.395348434064317  |grad|_K:  4.129e-07  alpha:  3.541e-01  linmin:  3.583e-07  t[s]:    996.40
	FillingsUpdate:  mu: -0.021098623  nElectrons: 498.000000
	SubspaceRotationAdjust: set factor to 0.18
ElecMinimize: Iter:  24  F: -1945.395365911209865  |grad|_K:  3.730e-07  alpha:  5.764e-01  linmin:  1.560e-07  t[s]:   1024.58
	FillingsUpdate:  mu: -0.020717880  nElectrons: 498.000000
	SubspaceRotationAdjust: set factor to 0.176
ElecMinimize: Iter:  25  F: -1945.395378234347845  |grad|_K:  3.613e-07  alpha:  4.982e-01  linmin: -5.229e-07  t[s]:   1051.90
	FillingsUpdate:  mu: -0.021120290  nElectrons: 498.000000
	SubspaceRotationAdjust: set factor to 0.156
ElecMinimize: Iter:  26  F: -1945.395387460975826  |grad|_K:  3.371e-07  alpha:  3.973e-01  linmin: -1.393e-07  t[s]:   1078.64
	FillingsUpdate:  mu: -0.021789230  nElectrons: 498.000000
	SubspaceRotationAdjust: set factor to 0.131
	SubspaceRotationAdjust: resetting CG because factor has changed by 0.130907
ElecMinimize: 	State modified externally: resetting search direction.
ElecMinimize: Iter:  27  F: -1945.395395747877956  |grad|_K:  3.115e-07  alpha:  4.101e-01
	FillingsUpdate:  mu: -0.020974625  nElectrons: 498.000000
	SubspaceRotationAdjust: set factor to 0.115
ElecMinimize: Iter:  28  F: -1945.395402912800364  |grad|_K:  2.186e-07  alpha:  4.153e-01  linmin: -6.342e-06  t[s]:   1148.60
	FillingsUpdate:  mu: -0.020996906  nElectrons: 498.000000
	SubspaceRotationAdjust: set factor to 0.0841
ElecMinimize: Iter:  29  F: -1945.395406449588108  |grad|_K:  1.794e-07  alpha:  4.162e-01  linmin:  1.634e-06  t[s]:   1175.44
	FillingsUpdate:  mu: -0.021364477  nElectrons: 498.000000
	SubspaceRotationAdjust: set factor to 0.0747
ElecMinimize: Iter:  30  F: -1945.395410909514794  |grad|_K:  1.701e-07  alpha:  7.792e-01  linmin:  6.111e-07  t[s]:   1202.22
	FillingsUpdate:  mu: -0.021186773  nElectrons: 498.000000
	SubspaceRotationAdjust: set factor to 0.0847
ElecMinimize: Iter:  31  F: -1945.395415603679112  |grad|_K:  1.232e-07  alpha:  9.120e-01  linmin:  9.867e-08  t[s]:   1230.16
	FillingsUpdate:  mu: -0.021110128  nElectrons: 498.000000
	SubspaceRotationAdjust: set factor to 0.0683
ElecMinimize: Iter:  32  F: -1945.395417868957338  |grad|_K:  1.411e-07  alpha:  8.388e-01  linmin:  1.328e-07  t[s]:   1258.04
	FillingsUpdate:  mu: -0.021147800  nElectrons: 498.000000
	SubspaceRotationAdjust: set factor to 0.0553
ElecMinimize: Iter:  33  F: -1945.395420601719479  |grad|_K:  1.081e-07  alpha:  7.716e-01  linmin: -6.104e-08  t[s]:   1284.93
	FillingsUpdate:  mu: -0.021323481  nElectrons: 498.000000
	SubspaceRotationAdjust: set factor to 0.0566
ElecMinimize: Iter:  34  F: -1945.395422784312586  |grad|_K:  1.039e-07  alpha:  1.049e+00  linmin:  5.695e-08  t[s]:   1313.26
	FillingsUpdate:  mu: -0.021270745  nElectrons: 498.000000
	SubspaceRotationAdjust: set factor to 0.0574
ElecMinimize: Iter:  35  F: -1945.395424221313988  |grad|_K:  7.942e-08  alpha:  7.489e-01  linmin: -9.715e-09  t[s]:   1341.06
	FillingsUpdate:  mu: -0.021111019  nElectrons: 498.000000
	SubspaceRotationAdjust: set factor to 0.0526
ElecMinimize: Iter:  36  F: -1945.395425158488479  |grad|_K:  5.577e-08  alpha:  8.353e-01  linmin: -9.915e-07  t[s]:   1369.44
	FillingsUpdate:  mu: -0.021198579  nElectrons: 498.000000
	SubspaceRotationAdjust: set factor to 0.0563
ElecMinimize: Iter:  37  F: -1945.395425721246056  |grad|_K:  4.194e-08  alpha:  1.017e+00  linmin:  3.473e-07  t[s]:   1397.59
	FillingsUpdate:  mu: -0.021217703  nElectrons: 498.000000
	SubspaceRotationAdjust: set factor to 0.0621
ElecMinimize: Iter:  38  F: -1945.395425964190736  |grad|_K:  3.406e-08  alpha:  7.766e-01  linmin:  6.898e-07  t[s]:   1426.59
	FillingsUpdate:  mu: -0.021193444  nElectrons: 498.000000
	SubspaceRotationAdjust: set factor to 0.0744
ElecMinimize: Iter:  39  F: -1945.395426106471632  |grad|_K:  2.420e-08  alpha:  6.896e-01  linmin: -2.691e-06  t[s]:   1454.65
	FillingsUpdate:  mu: -0.021192903  nElectrons: 498.000000
	SubspaceRotationAdjust: set factor to 0.0889
ElecMinimize: Iter:  40  F: -1945.395426233035550  |grad|_K:  1.920e-08  alpha:  1.216e+00  linmin:  1.597e-06  t[s]:   1483.18
	FillingsUpdate:  mu: -0.021192081  nElectrons: 498.000000
	SubspaceRotationAdjust: set factor to 0.0932
ElecMinimize: Iter:  41  F: -1945.395426292283673  |grad|_K:  2.055e-08  alpha:  9.039e-01  linmin:  6.294e-07  t[s]:   1511.39
	FillingsUpdate:  mu: -0.021178969  nElectrons: 498.000000
	SubspaceRotationAdjust: set factor to 0.0877
ElecMinimize: Iter:  42  F: -1945.395426349479749  |grad|_K:  1.647e-08  alpha:  7.608e-01  linmin: -7.670e-07  t[s]:   1539.10
	FillingsUpdate:  mu: -0.021194488  nElectrons: 498.000000
	SubspaceRotationAdjust: set factor to 0.0786
ElecMinimize: Iter:  43  F: -1945.395426386880672  |grad|_K:  1.344e-08  alpha:  7.753e-01  linmin: -3.154e-07  t[s]:   1567.12
	FillingsUpdate:  mu: -0.021190438  nElectrons: 498.000000
	SubspaceRotationAdjust: set factor to 0.0744
ElecMinimize: Iter:  44  F: -1945.395426405888429  |grad|_K:  1.004e-08  alpha:  5.925e-01  linmin:  1.135e-06  t[s]:   1595.93
	FillingsUpdate:  mu: -0.021185680  nElectrons: 498.000000
	SubspaceRotationAdjust: set factor to 0.0851
ElecMinimize: Iter:  45  F: -1945.395426420905778  |grad|_K:  6.650e-09  alpha:  8.496e-01  linmin:  6.870e-06  t[s]:   1624.72
	FillingsUpdate:  mu: -0.021191146  nElectrons: 498.000000
	SubspaceRotationAdjust: set factor to 0.0961
ElecMinimize: Iter:  46  F: -1945.395426427922075  |grad|_K:  5.233e-09  alpha:  9.037e-01  linmin:  6.990e-06  t[s]:   1653.04
	FillingsUpdate:  mu: -0.021189714  nElectrons: 498.000000
	SubspaceRotationAdjust: set factor to 0.095
ElecMinimize: Iter:  47  F: -1945.395426431203759  |grad|_K:  4.897e-09  alpha:  6.767e-01  linmin:  8.338e-07  t[s]:   1681.67
ElecMinimize: Converged (|Delta F|<1.000000e-08 for 2 iters).
Setting wave functions to eigenvectors of Hamiltonian
Vacuum energy after initial minimize, F = -1945.395426431203759

	Linear fluid (dielectric constant: 78.4, screening length: 5.74355 Bohr) occupying 0.636958 of unit cell:	Completed after 29 iterations at t[s]:   1688.87

-------- Electronic minimization -----------
	Linear fluid (dielectric constant: 78.4, screening length: 5.74355 Bohr) occupying 0.636958 of unit cell:	Completed after 0 iterations at t[s]:   1694.14
	FillingsUpdate:  mu: -0.166738488  nElectrons: 498.000000
ElecMinimize: Iter:   0  F: -1945.391168434545307  |grad|_K:  8.505e-07  alpha:  1.000e+00
	Linear fluid (dielectric constant: 78.4, screening length: 5.74355 Bohr) occupying 0.637096 of unit cell:	Completed after 14 iterations at t[s]:   1715.66
	Linear fluid (dielectric constant: 78.4, screening length: 5.74355 Bohr) occupying 0.637136 of unit cell:	Completed after 9 iterations at t[s]:   1724.43
	FillingsUpdate:  mu: -0.167181412  nElectrons: 498.000000
	SubspaceRotationAdjust: set factor to 0.0794
ElecMinimize: Iter:   1  F: -1945.391333219554554  |grad|_K:  7.324e-07  alpha:  1.284e+00  linmin:  2.365e-06  t[s]:   1735.02
	Linear fluid (dielectric constant: 78.4, screening length: 5.74355 Bohr) occupying 0.637324 of unit cell:	Completed after 21 iterations at t[s]:   1745.86
	Linear fluid (dielectric constant: 78.4, screening length: 5.74355 Bohr) occupying 0.637256 of unit cell:	Completed after 13 iterations at t[s]:   1755.09
	FillingsUpdate:  mu: -0.167622328  nElectrons: 498.000000
	SubspaceRotationAdjust: set factor to 0.0626
ElecMinimize: Iter:   2  F: -1945.391410984238746  |grad|_K:  4.942e-07  alpha:  8.212e-01  linmin:  1.622e-07  t[s]:   1766.08
	Linear fluid (dielectric constant: 78.4, screening length: 5.74355 Bohr) occupying 0.637306 of unit cell:	Completed after 15 iterations at t[s]:   1777.72
	Linear fluid (dielectric constant: 78.4, screening length: 5.74355 Bohr) occupying 0.637313 of unit cell:	Completed after 3 iterations at t[s]:   1785.89
	FillingsUpdate:  mu: -0.165758088  nElectrons: 498.000000
	SubspaceRotationAdjust: set factor to 0.0626
ElecMinimize: Iter:   3  F: -1945.391452442597938  |grad|_K:  3.574e-07  alpha:  9.500e-01  linmin: -3.968e-06  t[s]:   1796.34
	Linear fluid (dielectric constant: 78.4, screening length: 5.74355 Bohr) occupying 0.637320 of unit cell:	Completed after 8 iterations at t[s]:   1806.37
	Linear fluid (dielectric constant: 78.4, screening length: 5.74355 Bohr) occupying 0.637319 of unit cell:	Completed after 3 iterations at t[s]:   1815.23
	FillingsUpdate:  mu: -0.165829863  nElectrons: 498.000000
	SubspaceRotationAdjust: set factor to 0.0707
ElecMinimize: Iter:   4  F: -1945.391471562613788  |grad|_K:  2.825e-07  alpha:  8.164e-01  linmin:  4.167e-08  t[s]:   1825.93
	Linear fluid (dielectric constant: 78.4, screening length: 5.74355 Bohr) occupying 0.637308 of unit cell:	Completed after 13 iterations at t[s]:   1836.41
	Linear fluid (dielectric constant: 78.4, screening length: 5.74355 Bohr) occupying 0.637309 of unit cell:	Completed after 2 iterations at t[s]:   1844.99
	FillingsUpdate:  mu: -0.166434083  nElectrons: 498.000000
	SubspaceRotationAdjust: set factor to 0.0772
ElecMinimize: Iter:   5  F: -1945.391481735241769  |grad|_K:  1.989e-07  alpha:  7.159e-01  linmin:  2.168e-06  t[s]:   1856.10
	Linear fluid (dielectric constant: 78.4, screening length: 5.74355 Bohr) occupying 0.637298 of unit cell:	Completed after 7 iterations at t[s]:   1867.04
	Linear fluid (dielectric constant: 78.4, screening length: 5.74355 Bohr) occupying 0.637294 of unit cell:	Completed after 4 iterations at t[s]:   1876.02
	FillingsUpdate:  mu: -0.166252879  nElectrons: 498.000000
	SubspaceRotationAdjust: set factor to 0.0857
ElecMinimize: Iter:   6  F: -1945.391488530026891  |grad|_K:  1.365e-07  alpha:  9.782e-01  linmin: -2.489e-06  t[s]:   1886.54
	Linear fluid (dielectric constant: 78.4, screening length: 5.74355 Bohr) occupying 0.637287 of unit cell:	Completed after 3 iterations at t[s]:   1896.36
	Linear fluid (dielectric constant: 78.4, screening length: 5.74355 Bohr) occupying 0.637286 of unit cell:	Completed after 0 iterations at t[s]:   1904.19
	FillingsUpdate:  mu: -0.166256451  nElectrons: 498.000000
	SubspaceRotationAdjust: set factor to 0.109
ElecMinimize: Iter:   7  F: -1945.391492222950319  |grad|_K:  1.096e-07  alpha:  1.081e+00  linmin: -9.442e-07  t[s]:   1914.82
	Linear fluid (dielectric constant: 78.4, screening length: 5.74355 Bohr) occupying 0.637281 of unit cell:	Completed after 7 iterations at t[s]:   1925.62
	Linear fluid (dielectric constant: 78.4, screening length: 5.74355 Bohr) occupying 0.637281 of unit cell:	Completed after 0 iterations at t[s]:   1933.97
	FillingsUpdate:  mu: -0.166466082  nElectrons: 498.000000
	SubspaceRotationAdjust: set factor to 0.116
ElecMinimize: Iter:   8  F: -1945.391494257547265  |grad|_K:  1.213e-07  alpha:  9.362e-01  linmin:  8.087e-07  t[s]:   1944.77
	Linear fluid (dielectric constant: 78.4, screening length: 5.74355 Bohr) occupying 0.637277 of unit cell:	Completed after 8 iterations at t[s]:   1955.03
	Linear fluid (dielectric constant: 78.4, screening length: 5.74355 Bohr) occupying 0.637278 of unit cell:	Completed after 3 iterations at t[s]:   1963.29
	FillingsUpdate:  mu: -0.166435436  nElectrons: 498.000000
	SubspaceRotationAdjust: set factor to 0.127
ElecMinimize: Iter:   9  F: -1945.391495723253001  |grad|_K:  8.771e-08  alpha:  5.942e-01  linmin:  1.770e-07  t[s]:   1974.27
	Linear fluid (dielectric constant: 78.4, screening length: 5.74355 Bohr) occupying 0.637278 of unit cell:	Completed after 4 iterations at t[s]:   1985.01
	Linear fluid (dielectric constant: 78.4, screening length: 5.74355 Bohr) occupying 0.637278 of unit cell:	Completed after 0 iterations at t[s]:   1993.37
	FillingsUpdate:  mu: -0.166399954  nElectrons: 498.000000
	SubspaceRotationAdjust: set factor to 0.144
ElecMinimize: Iter:  10  F: -1945.391496749108001  |grad|_K:  7.631e-08  alpha:  7.331e-01  linmin: -2.782e-06  t[s]:   2004.31
	Linear fluid (dielectric constant: 78.4, screening length: 5.74355 Bohr) occupying 0.637280 of unit cell:	Completed after 7 iterations at t[s]:   2015.29
	Linear fluid (dielectric constant: 78.4, screening length: 5.74355 Bohr) occupying 0.637279 of unit cell:	Completed after 2 iterations at t[s]:   2024.24
	FillingsUpdate:  mu: -0.166175003  nElectrons: 498.000000
	SubspaceRotationAdjust: set factor to 0.102
ElecMinimize: Iter:  11  F: -1945.391497083142667  |grad|_K:  9.928e-08  alpha:  4.176e-01  linmin: -2.305e-06  t[s]:   2034.74
	Linear fluid (dielectric constant: 78.4, screening length: 5.74355 Bohr) occupying 0.637281 of unit cell:	Completed after 7 iterations at t[s]:   2045.58
	Linear fluid (dielectric constant: 78.4, screening length: 5.74355 Bohr) occupying 0.637280 of unit cell:	Completed after 3 iterations at t[s]:   2053.83
	FillingsUpdate:  mu: -0.166243762  nElectrons: 498.000000
	SubspaceRotationAdjust: set factor to 0.15
ElecMinimize: Iter:  12  F: -1945.391497484231195  |grad|_K:  6.585e-08  alpha:  2.306e-01  linmin:  1.064e-06  t[s]:   2064.81
	Linear fluid (dielectric constant: 78.4, screening length: 5.74355 Bohr) occupying 0.637281 of unit cell:	Completed after 0 iterations at t[s]:   2075.19
ElecMinimize: 	Predicted alpha/alphaT>3.000000, increasing alphaT to 6.918126e-01.
	Linear fluid (dielectric constant: 78.4, screening length: 5.74355 Bohr) occupying 0.637282 of unit cell:	Completed after 7 iterations at t[s]:   2083.98
	Linear fluid (dielectric constant: 78.4, screening length: 5.74355 Bohr) occupying 0.637281 of unit cell:	Completed after 3 iterations at t[s]:   2092.61
	FillingsUpdate:  mu: -0.166408086  nElectrons: 498.000000
	SubspaceRotationAdjust: set factor to 0.134
ElecMinimize: Iter:  13  F: -1945.391497789367349  |grad|_K:  6.478e-08  alpha:  3.797e-01  linmin:  4.637e-06  t[s]:   2103.01
	Linear fluid (dielectric constant: 78.4, screening length: 5.74355 Bohr) occupying 0.637283 of unit cell:	Completed after 2 iterations at t[s]:   2112.87
	Linear fluid (dielectric constant: 78.4, screening length: 5.74355 Bohr) occupying 0.637282 of unit cell:	Completed after 0 iterations at t[s]:   2120.68
	FillingsUpdate:  mu: -0.166398717  nElectrons: 498.000000
	SubspaceRotationAdjust: set factor to 0.158
ElecMinimize: Iter:  14  F: -1945.391497948892948  |grad|_K:  5.257e-08  alpha:  2.683e-01  linmin:  2.829e-07  t[s]:   2131.43
	Linear fluid (dielectric constant: 78.4, screening length: 5.74355 Bohr) occupying 0.637283 of unit cell:	Completed after 3 iterations at t[s]:   2142.03
	Linear fluid (dielectric constant: 78.4, screening length: 5.74355 Bohr) occupying 0.637283 of unit cell:	Completed after 0 iterations at t[s]:   2150.11
	FillingsUpdate:  mu: -0.166367473  nElectrons: 498.000000
	SubspaceRotationAdjust: set factor to 0.176
ElecMinimize: Iter:  15  F: -1945.391498054814292  |grad|_K:  3.300e-08  alpha:  2.321e-01  linmin: -5.496e-06  t[s]:   2161.14
	Linear fluid (dielectric constant: 78.4, screening length: 5.74355 Bohr) occupying 0.637284 of unit cell:	Completed after 0 iterations at t[s]:   2171.51
ElecMinimize: 	Predicted alpha/alphaT>3.000000, increasing alphaT to 6.964151e-01.
	Linear fluid (dielectric constant: 78.4, screening length: 5.74355 Bohr) occupying 0.637285 of unit cell:	Completed after 5 iterations at t[s]:   2179.69
	Linear fluid (dielectric constant: 78.4, screening length: 5.74355 Bohr) occupying 0.637284 of unit cell:	Completed after 2 iterations at t[s]:   2188.27
	FillingsUpdate:  mu: -0.166241601  nElectrons: 498.000000
	SubspaceRotationAdjust: set factor to 0.116
ElecMinimize: Iter:  16  F: -1945.391498067561997  |grad|_K:  4.942e-08  alpha:  2.812e-01  linmin:  1.439e-05  t[s]:   2198.93
	Linear fluid (dielectric constant: 78.4, screening length: 5.74355 Bohr) occupying 0.637285 of unit cell:	Completed after 2 iterations at t[s]:   2209.21
	Linear fluid (dielectric constant: 78.4, screening length: 5.74355 Bohr) occupying 0.637284 of unit cell:	Completed after 0 iterations at t[s]:   2217.93
	FillingsUpdate:  mu: -0.166235898  nElectrons: 498.000000
	SubspaceRotationAdjust: set factor to 0.111
ElecMinimize: Iter:  17  F: -1945.391498112815952  |grad|_K:  4.124e-08  alpha:  1.358e-01  linmin:  4.282e-06  t[s]:   2229.01
	Linear fluid (dielectric constant: 78.4, screening length: 5.74355 Bohr) occupying 0.637285 of unit cell:	Completed after 0 iterations at t[s]:   2239.43
	Linear fluid (dielectric constant: 78.4, screening length: 5.74355 Bohr) occupying 0.637285 of unit cell:	Completed after 4 iterations at t[s]:   2248.51
ElecMinimize: 	Step increased F by 2.451748e-08, reducing alpha to 4.038142e-02.
	Linear fluid (dielectric constant: 78.4, screening length: 5.74355 Bohr) occupying 0.637284 of unit cell:	Completed after 3 iterations at t[s]:   2267.49
	FillingsUpdate:  mu: -0.166262189  nElectrons: 498.000000
	SubspaceRotationAdjust: set factor to 0.183
ElecMinimize: Iter:  18  F: -1945.391498129998126  |grad|_K:  2.618e-08  alpha:  4.038e-02  linmin: -2.474e-05  t[s]:   2278.29
	Linear fluid (dielectric constant: 78.4, screening length: 5.74355 Bohr) occupying 0.637284 of unit cell:	Completed after 0 iterations at t[s]:   2288.16
ElecMinimize: 	Predicted alpha/alphaT>3.000000, increasing alphaT to 1.211443e-01.
	Linear fluid (dielectric constant: 78.4, screening length: 5.74355 Bohr) occupying 0.637285 of unit cell:	Completed after 0 iterations at t[s]:   2295.79
ElecMinimize: 	Predicted alpha/alphaT>3.000000, increasing alphaT to 3.634328e-01.
	Linear fluid (dielectric constant: 78.4, screening length: 5.74355 Bohr) occupying 0.637285 of unit cell:	Completed after 0 iterations at t[s]:   2303.48
	Linear fluid (dielectric constant: 78.4, screening length: 5.74355 Bohr) occupying 0.637285 of unit cell:	Completed after 5 iterations at t[s]:   2311.68
ElecMinimize: 	Step increased F by 8.007305e-08, reducing alpha to 8.295428e-02.
	Linear fluid (dielectric constant: 78.4, screening length: 5.74355 Bohr) occupying 0.637285 of unit cell:	Completed after 3 iterations at t[s]:   2329.89
	FillingsUpdate:  mu: -0.166324669  nElectrons: 498.000000
	SubspaceRotationAdjust: set factor to 0.177
ElecMinimize: Iter:  19  F: -1945.391498187315165  |grad|_K:  2.249e-08  alpha:  8.295e-02  linmin: -3.936e-05  t[s]:   2340.52
	Linear fluid (dielectric constant: 78.4, screening length: 5.74355 Bohr) occupying 0.637285 of unit cell:	Completed after 0 iterations at t[s]:   2349.90
ElecMinimize: 	Predicted alpha/alphaT>3.000000, increasing alphaT to 2.488628e-01.
	Linear fluid (dielectric constant: 78.4, screening length: 5.74355 Bohr) occupying 0.637285 of unit cell:	Completed after 0 iterations at t[s]:   2358.30
	Linear fluid (dielectric constant: 78.4, screening length: 5.74355 Bohr) occupying 0.637285 of unit cell:	Completed after 0 iterations at t[s]:   2366.18
	FillingsUpdate:  mu: -0.166324473  nElectrons: 498.000000
	SubspaceRotationAdjust: set factor to 0.225
ElecMinimize: Iter:  20  F: -1945.391498243000115  |grad|_K:  1.280e-08  alpha:  3.823e-01  linmin: -1.219e-06  t[s]:   2377.34
	Linear fluid (dielectric constant: 78.4, screening length: 5.74355 Bohr) occupying 0.637284 of unit cell:	Completed after 2 iterations at t[s]:   2387.96
	Linear fluid (dielectric constant: 78.4, screening length: 5.74355 Bohr) occupying 0.637285 of unit cell:	Completed after 0 iterations at t[s]:   2396.20
ElecMinimize: 	Step increased F by 4.718095e-08, reducing alpha to 5.918984e-03.
	Linear fluid (dielectric constant: 78.4, screening length: 5.74355 Bohr) occupying 0.637285 of unit cell:	Completed after 0 iterations at t[s]:   2415.26
ElecMinimize: 	Step increased F by 4.736739e-08, reducing alpha to 5.918984e-04.
	Linear fluid (dielectric constant: 78.4, screening length: 5.74355 Bohr) occupying 0.637285 of unit cell:	Completed after 0 iterations at t[s]:   2434.15
ElecMinimize: 	Step increased F by 4.742219e-08, reducing alpha to 5.918984e-05.
ElecMinimize: 	Step failed to reduce F after 3 attempts. Quitting step.
ElecMinimize: 	Undoing step.
	Linear fluid (dielectric constant: 78.4, screening length: 5.74355 Bohr) occupying 0.637285 of unit cell:	Completed after 0 iterations at t[s]:   2452.53
ElecMinimize: 	Step failed: resetting search direction.
	FillingsUpdate:  mu: -0.166320105  nElectrons: 498.000000
	SubspaceRotationAdjust: set factor to 0.241
ElecMinimize: Iter:  21  F: -1945.391498195548138  |grad|_K:  2.533e-08  alpha:  5.919e-05
	Linear fluid (dielectric constant: 78.4, screening length: 5.74355 Bohr) occupying 0.637284 of unit cell:	Completed after 0 iterations at t[s]:   2474.44
	Linear fluid (dielectric constant: 78.4, screening length: 5.74355 Bohr) occupying 0.637284 of unit cell:	Completed after 2 iterations at t[s]:   2483.06
	FillingsUpdate:  mu: -0.166317843  nElectrons: 498.000000
	SubspaceRotationAdjust: set factor to 0.242
ElecMinimize: Iter:  22  F: -1945.391498205533480  |grad|_K:  2.354e-08  alpha:  5.928e-01  linmin:  9.782e-05  t[s]:   2493.82
	Linear fluid (dielectric constant: 78.4, screening length: 5.74355 Bohr) occupying 0.637284 of unit cell:	Completed after 0 iterations at t[s]:   2504.29
	Linear fluid (dielectric constant: 78.4, screening length: 5.74355 Bohr) occupying 0.637284 of unit cell:	Completed after 0 iterations at t[s]:   2513.00
	FillingsUpdate:  mu: -0.166318101  nElectrons: 498.000000
	SubspaceRotationAdjust: set factor to 0.263
ElecMinimize: Iter:  23  F: -1945.391498242949183  |grad|_K:  1.740e-08  alpha:  1.299e+00  linmin: -1.417e-08  t[s]:   2524.11
	Linear fluid (dielectric constant: 78.4, screening length: 5.74355 Bohr) occupying 0.637283 of unit cell:	Completed after 3 iterations at t[s]:   2534.81
	Linear fluid (dielectric constant: 78.4, screening length: 5.74355 Bohr) occupying 0.637284 of unit cell:	Completed after 0 iterations at t[s]:   2543.38
	FillingsUpdate:  mu: -0.166308713  nElectrons: 498.000000
	SubspaceRotationAdjust: set factor to 0.264
ElecMinimize: Iter:  24  F: -1945.391498301755064  |grad|_K:  2.989e-08  alpha:  2.931e-01  linmin:  4.985e-05  t[s]:   2554.31
ElecMinimize: 	Bad step direction: g.d > 0.
ElecMinimize: 	Undoing step.
	Linear fluid (dielectric constant: 78.4, screening length: 5.74355 Bohr) occupying 0.637284 of unit cell:	Completed after 0 iterations at t[s]:   2564.72
ElecMinimize: 	Step failed: resetting search direction.
	FillingsUpdate:  mu: -0.166308713  nElectrons: 498.000000
	SubspaceRotationAdjust: set factor to 0.301
ElecMinimize: Iter:  25  F: -1945.391498301740739  |grad|_K:  2.990e-08  alpha:  0.000e+00
	Linear fluid (dielectric constant: 78.4, screening length: 5.74355 Bohr) occupying 0.637284 of unit cell:	Completed after 1 iterations at t[s]:   2585.85
	Linear fluid (dielectric constant: 78.4, screening length: 5.74355 Bohr) occupying 0.637284 of unit cell:	Completed after 0 iterations at t[s]:   2593.95
ElecMinimize: 	Step increased F by 5.110314e-08, reducing alpha to 8.305226e-03.
	Linear fluid (dielectric constant: 78.4, screening length: 5.74355 Bohr) occupying 0.637284 of unit cell:	Completed after 0 iterations at t[s]:   2612.81
ElecMinimize: 	Step increased F by 4.955996e-08, reducing alpha to 8.305226e-04.
	Linear fluid (dielectric constant: 78.4, screening length: 5.74355 Bohr) occupying 0.637284 of unit cell:	Completed after 0 iterations at t[s]:   2631.83
ElecMinimize: 	Step increased F by 4.959088e-08, reducing alpha to 8.305226e-05.
ElecMinimize: 	Step failed to reduce F after 3 attempts. Quitting step.
ElecMinimize: 	Undoing step.
	Linear fluid (dielectric constant: 78.4, screening length: 5.74355 Bohr) occupying 0.637284 of unit cell:	Completed after 0 iterations at t[s]:   2649.78
ElecMinimize: 	Step failed along negative gradient direction.
ElecMinimize: Probably at roundoff error limit. (Stopping)
Setting wave functions to eigenvectors of Hamiltonian
Single-point solvation energy estimate, DeltaF = +0.003928179025934

# Ionic positions in lattice coordinates:
ion Bi   0.333393747763943   0.166718146009632   0.525129832052748 0
ion Bi   0.833324424735051   0.166718146009632   0.525129832052748 0
ion Bi   0.333347535244681   0.666695044000001   0.525101656776508 0
ion Bi   0.833324418235053   0.666648809980743   0.525129832052748 0
ion Bi   0.166681137973422   0.333362249457483   0.475017456304360 0
ion Bi   0.666651234744681   0.333302443000001   0.475039093231116 0
ion Bi   0.166681131473420   0.833272554771257   0.475017456304360 0
ion Bi   0.666591449787199   0.833272554771257   0.475017456304360 0
ion Bi   0.333323838861185   0.166655931058253   0.358937364679631 0
ion Bi   0.833332118686430   0.166655931058253   0.358937364679631 0
ion Bi   0.333329366744683   0.666658707000003   0.358919552822436 0
ion Bi   0.833332126686431   0.666664226883500   0.358937364679631 0
ion Bi   0.167369024083875   0.334738021678388   0.641260726285407 0
ion Bi   0.666669648244683   0.333339270000003   0.641151517281227 0
ion Bi   0.167369048083873   0.832639942160808   0.641260726285407 0
ion Bi   0.665270920566297   0.832639942160808   0.641260726285407 0
ion Bi   0.000003112744680   0.000006198999998   0.253156711708140 0
ion Bi   0.500015491139954   0.000030955790546   0.253158817850937 0
ion Bi  -0.000021623045867   0.499993834604725   0.253158817850937 0
ion Bi   0.500015484139953   0.499993834604725   0.253158817850937 0
ion Bi   0.999995103244680   0.999990179999998   0.747701917698218 0
ion Bi   0.506725935355883   0.013451844222404   0.746183613619382 0
ion Bi   0.986533447522275   0.493259364888799   0.746183613619382 0
ion Bi   0.506725943855885   0.493259364888799   0.746183613619382 0
ion Se   0.000016007744681   0.000031989000000   0.402614318120630 0
ion Se   0.499919230017967  -0.000161566453428   0.402579340019883 0
ion Se   0.000209562198109   0.500128792726716   0.402579340019883 0
ion Se   0.499919257017969   0.500128792726716   0.402579340019883 0
ion Se   0.999975955744682   0.999951885000002   0.597775388583089 0
ion Se   0.499269019558440  -0.001461987372481   0.597626098121775 0
ion Se   0.001389818617162   0.500658773186239   0.597626098121775 0
ion Se   0.499268981058439   0.500658773186239   0.597626098121775 0
ion Se   0.336180496023760   0.168114785639541   0.692825463851383 0
ion Se   0.831934316105143   0.168114785639541   0.692825463851383 0
ion Se   0.333349720744679   0.666699414999997   0.694787779050537 0
ion Se   0.831934318105140   0.663868609720917   0.692825463851383 0
ion Se   0.166631972761421   0.333263919033480   0.306940678822166 0
ion Se   0.666658622744682   0.333317219000001   0.306958273485648 0
ion Se   0.166631968761420   0.833343916983259   0.306940678822166 0
ion Se   0.666711974711200   0.833343916983259   0.306940678822166 0
ion Se   0.333345435295695   0.166660552275509   0.210858860375146 0
ion Se   0.833315143469176   0.166660552275509   0.210858860375146 0
ion Se   0.333325223744681   0.666650421000000   0.210861620583882 0
ion Se   0.833315126469174   0.666630226448987   0.210858860375146 0
ion Se   0.168017962663536   0.336035898837711   0.787571718570039 0
ion Se   0.168017986663534   0.832018110081146   0.787571718570039 0
ion Se   0.664000149906973   0.832018110081146   0.787571718570039 0


# Forces in Lattice coordinates:
force Bi   0.000152110982922  -0.000460838777141   0.128374557346408 0
force Bi  -0.000152110982922  -0.000308727794219   0.128374557346408 0
force Bi   0.000000000000000  -0.000481063707937   0.119732609899454 0
force Bi   0.000000000000000  -0.000635199847694   0.128323680728240 0
force Bi   0.000000000000000   0.001085232402568  -0.111008414222738 0
force Bi   0.000000000000000   0.000544337607752  -0.106333546012021 0
force Bi   0.000521970015011  -0.000012454675784  -0.111125614260423 0
force Bi  -0.000521970015011   0.000509515339227  -0.111125614260423 0
force Bi  -0.000271548805535   0.000029740052374  -0.017147151895238 0
force Bi   0.000271548805535  -0.000241808753161  -0.017147151895238 0
force Bi   0.000000000000000   0.000035207855555  -0.019501873168950 0
force Bi   0.000000000000000   0.000304290628785  -0.017140370617298 0
force Bi   0.000000000000000   0.008194734375505   0.061055563811543 0
force Bi   0.000000000000000   0.000020389977378   0.037020492529863 0
force Bi   0.007800579225951  -0.008301627131052   0.060833447675195 0
force Bi  -0.007800579225951  -0.000501047905101   0.060833447675195 0
force Bi   0.000000000000000  -0.000123384339528  -0.038706133250287 0
force Bi   0.000000000000000  -0.000664816432793  -0.049443286074874 0
force Bi   0.000582907529513  -0.000140195819083  -0.049656468090900 0
force Bi  -0.000582907529513   0.000442711710430  -0.049656468090900 0
force Bi   0.000000000000000   0.000321528293748   0.066260998875347 0
force Bi   0.000000000000000  -0.006872048448141   0.137430197008857 0
force Bi   0.005634895511170   0.000818742636549   0.137456904309761 0
force Bi  -0.005634895511170   0.006453638147716   0.137456904309761 0
force Se   0.000000000000000  -0.000357482743944   0.059745161966319 0
force Se   0.000000000000000   0.000863465608822   0.060978781463504 0
force Se  -0.001232115325826  -0.000365892615467   0.060947879865900 0
force Se   0.001232115325826  -0.001598007941292   0.060947879865900 0
force Se   0.000000000000000   0.000469217436514  -0.075155274401453 0
force Se   0.000000000000000   0.002815232301979  -0.105890455526295 0
force Se  -0.002345621761659   0.000504046177042  -0.105994875179683 0
force Se   0.002345621761659  -0.001841575584617  -0.105994875179683 0
force Se  -0.005406387896850  -0.000215781659300  -0.052640315496478 0
force Se   0.005406387896850  -0.005622169556150  -0.052640315496478 0
force Se   0.000000000000000  -0.000284733220183   0.048299329519563 0
force Se   0.000000000000000   0.005091344092299  -0.052606092492402 0
force Se   0.000000000000000  -0.000117600183613  -0.008388002226466 0
force Se   0.000000000000000   0.000130761064675  -0.006959985649487 0
force Se  -0.000249019878906   0.000375370235393  -0.008345472907939 0
force Se   0.000249019878906   0.000126350356487  -0.008345472907939 0
force Se   0.000111694714046   0.000205029688050  -0.056615259668153 0
force Se  -0.000111694714046   0.000316724402096  -0.056615259668153 0
force Se   0.000000000000000   0.000199633591434  -0.055330472788370 0
force Se   0.000000000000000   0.000090047792885  -0.056645041849924 0
force Se   0.000000000000000   0.004827773979439   0.001091331647485 0
force Se   0.005068302991961  -0.005306041296450   0.001508516506222 0
force Se  -0.005068302991961  -0.000237738304489   0.001508516506222 0

# Energy components:
   A_diel =        0.0029216961638453
   Eewald =    37255.2234190165909240
       EH =    38974.3395958771798178
     Eloc =   -78683.2221789875475224
      Enl =      604.2673540593750658
      Exc =    -1116.6623516432516681
 Exc_core =      779.8107543498529139
       KE =      240.8721210045224552
-------------------------------------
     Etot =    -1945.3683646271156249
       TS =        0.0231336250621581
-------------------------------------
        F =    -1945.3914982521778256

IonicMinimize: Iter:   0  F: -1945.391498252177826  |grad|_K:  0.000e+00  t[s]:   2667.61
IonicMinimize: Converged (|grad|_K<1.000000e-04).

#--- Lowdin population analysis ---
# oxidation-state Bi +0.118 +0.118 +0.121 +0.118 +0.116 +0.113 +0.116 +0.116 +0.681 +0.681 +0.682 +0.681 +0.667 +0.683 +0.667 +0.667 +0.713 +0.713 +0.713 +0.713 +0.705 +0.556 +0.556 +0.556
# oxidation-state Se -0.406 -0.406 -0.406 -0.406 -0.413 -0.401 -0.401 -0.401 -0.523 -0.523 -0.477 -0.523 -0.558 -0.557 -0.558 -0.558 -0.368 -0.368 -0.368 -0.368 -0.371 -0.371 -0.371


Dumping 'NbTe2.fillings' ... done
Dumping 'NbTe2.wfns' ... done
Dumping 'NbTe2.fluidState' ... done
Dumping 'NbTe2.eigenvals' ... done
End date and time: Tue Jul 14 12:39:06 2020  (Duration: 0-0:44:32.40)
Done!
