
*************** JDFTx 1.5.0  ***************

Start date and time: Fri Feb 12 02:10:03 2021
Executable jdftx_gpu with command-line: -i Charged.in -o Charged.out
Running on hosts (process indices):  amax (0-6)
Divided in process groups (process indices):  0 (0)  1 (1)  2 (2)  3 (3)  4 (4)  5 (5)  6 (6)
gpuInit: Found compatible cuda device 0 'Tesla K80'
gpuInit: Found compatible cuda device 1 'Tesla K80'
gpuInit: Found compatible cuda device 2 'Tesla K80'
gpuInit: Found compatible cuda device 3 'Tesla K80'
gpuInit: Found compatible cuda device 4 'Tesla K80'
gpuInit: Found compatible cuda device 5 'Tesla K80'
gpuInit: Found compatible cuda device 6 'Tesla K80'
gpuInit: Selected device 0
Resource initialization completed at t[s]:      3.44
Run totals: 7 processes, 24 threads, 7 GPUs


Input parsed successfully to the following command list (including defaults):

basis kpoint-dependent
cache-projectors no
coords-type Lattice
core-overlap-check none
coulomb-interaction Slab 001
coulomb-truncation-embed 0.5 0.5 0.5
davidson-band-ratio 1.1
dump End State
dump-name NbTe2.$VAR
elec-cutoff 20
elec-eigen-algo Davidson
elec-ex-corr gga-PBE
elec-initial-charge 0.500000
elec-initial-magnetization 20.000000 no
elec-smearing Gauss 0.0073499
electronic-minimize  \
	dirUpdateScheme      FletcherReeves \
	linminMethod         DirUpdateRecommended \
	nIterations          200 \
	history              15 \
	knormThreshold       0 \
	energyDiffThreshold  1e-08 \
	nEnergyDiff          2 \
	alphaTstart          1 \
	alphaTmin            1e-10 \
	updateTestStepSize   yes \
	alphaTreduceFactor   0.1 \
	alphaTincreaseFactor 3 \
	nAlphaAdjustMax      3 \
	wolfeEnergy          0.0001 \
	wolfeGradient        0.9 \
	fdTest               no
exchange-regularization WignerSeitzTruncated
fluid LinearPCM 298.000000 1.013250
fluid-anion F- 1 MeanFieldLJ \
	epsBulk 1 \
	pMol 0 \
	epsInf 1 \
	Pvap 0 \
	sigmaBulk 0 \
	Rvdw 2.24877 \
	Res 0 \
	tauNuc 343133
fluid-cation Na+ 1 MeanFieldLJ \
	epsBulk 1 \
	pMol 0 \
	epsInf 1 \
	Pvap 0 \
	sigmaBulk 0 \
	Rvdw 2.19208 \
	Res 0 \
	tauNuc 343133
fluid-ex-corr lda-TF lda-PZ
fluid-gummel-loop 10 1.000000e-05
fluid-minimize  \
	dirUpdateScheme      PolakRibiere \
	linminMethod         DirUpdateRecommended \
	nIterations          400 \
	history              15 \
	knormThreshold       1e-11 \
	energyDiffThreshold  0 \
	nEnergyDiff          2 \
	alphaTstart          1 \
	alphaTmin            1e-10 \
	updateTestStepSize   yes \
	alphaTreduceFactor   0.1 \
	alphaTincreaseFactor 3 \
	nAlphaAdjustMax      6 \
	wolfeEnergy          0.0001 \
	wolfeGradient        0.9 \
	fdTest               no
fluid-solvent H2O 55.338 ScalarEOS \
	epsBulk 78.4 \
	pMol 0.92466 \
	epsInf 1.77 \
	Pvap 1.06736e-10 \
	sigmaBulk 4.62e-05 \
	Rvdw 2.61727 \
	Res 1.42 \
	tauNuc 343133 \
	poleEl 15 7 1
forces-output-coords Positions
initial-state NbTe2.$VAR
ion W   0.083334675099593   0.166665307358739   0.500000000000000 1
ion W   0.333334675099593   0.166665307358739   0.500000000000000 1
ion W   0.583334675099593   0.166665307358739   0.500000000000000 1
ion W   0.833334675099593   0.166665307358739   0.500000000000000 1
ion W   0.083334675099593   0.416665307358739   0.500000000000000 1
ion W   0.333334675099593   0.416665307358739   0.500000000000000 1
ion W   0.583334675099593   0.416665307358739   0.500000000000000 1
ion W   0.833334675099593   0.416665307358739   0.500000000000000 1
ion W   0.083334675099593   0.666665307358739   0.500000000000000 1
ion W   0.333334675099593   0.666665307358739   0.500000000000000 1
ion W   0.583334675099593   0.666665307358739   0.500000000000000 1
ion W   0.833334675099593   0.666665307358739   0.500000000000000 1
ion W   0.083334675099593   0.916665307358739   0.500000000000000 1
ion W   0.333334675099593   0.916665307358739   0.500000000000000 1
ion W   0.583334675099593   0.916665307358739   0.500000000000000 1
ion W   0.833334675099593   0.916665307358739   0.500000000000000 1
ion Se   0.166667655762704   0.083332326695629   0.406896668529060 1
ion Se   0.166667655762704   0.083332326695629   0.593103331470940 1
ion Se   0.416667655762704   0.083332326695629   0.406896668529060 1
ion Se   0.416667655762704   0.083332326695629   0.593103331470940 1
ion Se   0.666667655762704   0.083332326695629   0.406896668529060 1
ion Se   0.666667655762704   0.083332326695629   0.593103331470940 1
ion Se   0.916667655762704   0.083332326695629   0.406896668529060 1
ion Se   0.916667655762704   0.083332326695629   0.593103331470940 1
ion Se   0.166667655762704   0.333332326695629   0.406896668529060 1
ion Se   0.166667655762704   0.333332326695629   0.593103331470940 1
ion Se   0.416667655762704   0.333332326695629   0.406896668529060 1
ion Se   0.416667655762704   0.333332326695629   0.593103331470940 1
ion Se   0.666667655762704   0.333332326695629   0.406896668529060 1
ion Se   0.666667655762704   0.333332326695629   0.593103331470940 1
ion Se   0.916667655762704   0.333332326695629   0.406896668529060 1
ion Se   0.916667655762704   0.333332326695629   0.593103331470940 1
ion Se   0.166667655762704   0.583332326695629   0.406896668529060 1
ion Se   0.166667655762704   0.583332326695629   0.593103331470940 1
ion Se   0.416667655762704   0.583332326695629   0.406896668529060 1
ion Se   0.416667655762704   0.583332326695629   0.593103331470940 1
ion Se   0.666667655762704   0.583332326695629   0.406896668529060 1
ion Se   0.666667655762704   0.583332326695629   0.593103331470940 1
ion Se   0.916667655762704   0.583332326695629   0.406896668529060 1
ion Se   0.916667655762704   0.583332326695629   0.593103331470940 1
ion Se   0.166667655762704   0.833332326695629   0.406896668529060 1
ion Se   0.166667655762704   0.833332326695629   0.593103331470940 1
ion Se   0.416667655762704   0.833332326695629   0.406896668529060 1
ion Se   0.416667655762704   0.833332326695629   0.593103331470940 1
ion Se   0.666667655762704   0.833332326695629   0.406896668529060 1
ion Se   0.666667655762704   0.833332326695629   0.593103331470940 1
ion Se   0.916667655762704   0.833332326695629   0.406896668529060 1
ion Se   0.916667655762704   0.833332326695629   0.593103331470940 1
ion-species GBRV/$ID_pbe.uspp
ion-width Ecut
ionic-minimize  \
	dirUpdateScheme      L-BFGS \
	linminMethod         DirUpdateRecommended \
	nIterations          500 \
	history              15 \
	knormThreshold       0.0001 \
	energyDiffThreshold  1e-06 \
	nEnergyDiff          2 \
	alphaTstart          1 \
	alphaTmin            1e-10 \
	updateTestStepSize   yes \
	alphaTreduceFactor   0.1 \
	alphaTincreaseFactor 3 \
	nAlphaAdjustMax      3 \
	wolfeEnergy          0.0001 \
	wolfeGradient        0.9 \
	fdTest               no
kpoint   0.000000000000   0.000000000000   0.000000000000  1.00000000000000
kpoint-folding 4 4 1 
latt-move-scale 1 1 1
latt-scale 1.88973 1.88973 1.88973 
lattice Triclinic 13.1778 13.1778 18.1461 90 90 120
lattice-minimize  \
	dirUpdateScheme      L-BFGS \
	linminMethod         DirUpdateRecommended \
	nIterations          0 \
	history              15 \
	knormThreshold       0 \
	energyDiffThreshold  1e-06 \
	nEnergyDiff          2 \
	alphaTstart          1 \
	alphaTmin            1e-10 \
	updateTestStepSize   yes \
	alphaTreduceFactor   0.1 \
	alphaTincreaseFactor 3 \
	nAlphaAdjustMax      3 \
	wolfeEnergy          0.0001 \
	wolfeGradient        0.9 \
	fdTest               no
lcao-params -1 1e-06 0.0073499
pcm-variant CANDLE
spintype z-spin
subspace-rotation-factor 1 yes
symmetries automatic
symmetry-threshold 0.0001



---------- Setting up symmetries ----------

Found 24 point-group symmetries of the bravais lattice
Found 192 space-group symmetries with basis
Applied RMS atom displacement 7.17076e-06 bohrs to make symmetries exact.

---------- Initializing the Grid ----------
R = 
[    24.9024   -12.4512          0  ]
[          0    21.5661          0  ]
[          0          0    34.2912  ]
unit cell volume = 18416
G =
[   0.252312   0.145672         -0  ]
[          0   0.291345          0  ]
[          0         -0    0.18323  ]
Minimum fftbox size, Smin = [  104  104  140  ]
Chosen fftbox size, S = [  108  108  140  ]

---------- Exchange Correlation functional ----------
Initalized PBE GGA exchange.
Initalized PBE GGA correlation.

---------- Setting up pseudopotentials ----------
Width of ionic core gaussian charges (only for fluid interactions / plotting) set to 0.397384

Reading pseudopotential file '/home/guoxy/vasp/jdftx-1.5.0/build/pseudopotentials/GBRV/w_pbe.uspp':
  Title: W.  Created by USPP 7.3.6 on 3-2-2014
  Reference state energy: -79.133630.  14 valence electrons in orbitals:
    |500>  occupation: 2  eigenvalue: -2.938934
    |510>  occupation: 6  eigenvalue: -1.620730
    |520>  occupation: 3.9  eigenvalue: -0.194511
    |600>  occupation: 2  eigenvalue: -0.234858
    |610>  occupation: 0  eigenvalue: -0.069444
  lMax: 3  lLocal: 3  QijEcut: 5
  8 projectors sampled on a log grid with 667 points:
    l: 0  eig: -2.938934  rCut: 1.45
    l: 0  eig: -0.234859  rCut: 1.45
    l: 0  eig: 0.500000  rCut: 1.45
    l: 1  eig: -1.620730  rCut: 1.5
    l: 1  eig: -0.069446  rCut: 1.5
    l: 2  eig: -0.194511  rCut: 1.7
    l: 2  eig: 0.150000  rCut: 1.7
    l: 3  eig: 0.500000  rCut: 2.3
  Partial core density with radius 1.2
  Transforming core density to a uniform radial grid of dG=0.02 with 1511 points.
  Transforming local potential to a uniform radial grid of dG=0.02 with 1511 points.
  Transforming nonlocal projectors to a uniform radial grid of dG=0.02 with 432 points.
  Transforming density augmentations to a uniform radial grid of dG=0.02 with 1511 points.
  Transforming atomic orbitals to a uniform radial grid of dG=0.02 with 432 points.
  Core radius for overlap checks: 2.30 bohrs.

Reading pseudopotential file '/home/guoxy/vasp/jdftx-1.5.0/build/pseudopotentials/GBRV/se_pbe.uspp':
  Title: Se.  Created by USPP 7.3.6 on 14-9-2013
  Reference state energy: -21.672887.  6 valence electrons in orbitals:
    |400>  occupation: 2  eigenvalue: -0.635284
    |410>  occupation: 4  eigenvalue: -0.239295
  lMax: 2  lLocal: 3  QijEcut: 5
  6 projectors sampled on a log grid with 625 points:
    l: 0  eig: -0.635278  rCut: 1.5
    l: 0  eig: 0.500000  rCut: 1.5
    l: 1  eig: -0.239295  rCut: 1.5
    l: 1  eig: 0.500000  rCut: 1.5
    l: 2  eig: 0.000000  rCut: 1.8
    l: 2  eig: 1.000000  rCut: 1.8
  Partial core density with radius 1.2
  Transforming core density to a uniform radial grid of dG=0.02 with 1511 points.
  Transforming local potential to a uniform radial grid of dG=0.02 with 1511 points.
  Transforming nonlocal projectors to a uniform radial grid of dG=0.02 with 432 points.
  Transforming density augmentations to a uniform radial grid of dG=0.02 with 1511 points.
  Transforming atomic orbitals to a uniform radial grid of dG=0.02 with 432 points.
  Core radius for overlap checks: 1.80 bohrs.

Initialized 2 species with 48 total atoms.

Folded 1 k-points by 4x4x1 to 16 k-points.

---------- Setting up k-points, bands, fillings ----------
Adding inversion symmetry to k-mesh for non-inversion-symmetric unit cell.
Reduced to 4 k-points under symmetry. 
Computing the number of bands and number of electrons
Calculating initial fillings.
nElectrons: 416.500000   nBands: 336   nStates: 8

----- Setting up reduced wavefunction bases (one per k-point) -----
average nbasis = 78679.312 , ideal nbasis = 78674.730

---------- Setting up coulomb interaction ----------
Fluid mode embedding: using embedded box, but periodic Coulomb kernel.
(Fluid response is responsible for (approximate) separation between periodic images.)
Setting up double-sized grid for truncated Coulomb potentials:
R = 
[    24.9024   -12.4512          0  ]
[          0    21.5661          0  ]
[          0          0    68.5823  ]
unit cell volume = 36832.1
G =
[   0.252312   0.145672         -0  ]
[          0   0.291345          0  ]
[          0         -0  0.0916152  ]
Chosen fftbox size, S = [  108  108  280  ]
Integer grid location selected as the embedding center:
   Grid: [  54  54  70  ]
   Lattice: [  0.5  0.5  0.5  ]
   Cartesian: [  6.22561  10.7831  17.1456  ]
Constructing Wigner-Seitz cell: 8 faces (6 quadrilaterals, 2 hexagons)
Range-separation parameter for embedded mesh potentials due to point charges: 0.624363 bohrs.

Initializing van der Waals corrections
	NOTE: vdW corrections apply only for interactions with fluid.
	 W:  C6:  815.23 Eh-a0^6  R0: 3.326 a0 (WARNING: beyond Grimme's data set)
	Se:  C6:  219.24 Eh-a0^6  R0: 3.347 a0

---------- Setting up ewald sum ----------
Optimum gaussian width for ewald sums = 6.962715 bohr.
Real space sum over 605 unit cells with max indices [  5  5  2  ]
Reciprocal space sum over 7425 terms with max indices [  7  7  16  ]

---------- Allocating electronic variables ----------
Initializing wave functions:  linear combination of atomic orbitals
W pseudo-atom occupations:   s ( 2 2 )  p ( 6 0 )  d ( 4 )
Se pseudo-atom occupations:   s ( 2 )  p ( 4 )
	FillingsUpdate:  mu: +0.353092812  nElectrons: 416.500000  magneticMoment: [ Abs: 4.09931  Tot: +0.77609 ]
LCAOMinimize: Iter:   0  F: -1400.8994804739361371  |grad|_K:  8.582e-03  alpha:  1.000e+00
	FillingsUpdate:  mu: -0.299259415  nElectrons: 416.500000  magneticMoment: [ Abs: 1.81321  Tot: +0.47166 ]
LCAOMinimize: Iter:   1  F: -1400.8999675829998068  |grad|_K:  6.720e-03  alpha:  3.426e-01  linmin:  4.239e-01  cgtest: -1.307e+00  t[s]:    140.21
LCAOMinimize: 	Bad step direction: g.d > 0.
LCAOMinimize: 	Undoing step.
LCAOMinimize: 	Step failed: resetting search direction.
	FillingsUpdate:  mu: -0.299259415  nElectrons: 416.500000  magneticMoment: [ Abs: 1.81321  Tot: +0.47166 ]
LCAOMinimize: Iter:   2  F: -1400.8999675829998068  |grad|_K:  6.720e-03  alpha:  0.000e+00
	FillingsUpdate:  mu: -0.084674461  nElectrons: 416.500000  magneticMoment: [ Abs: 2.27516  Tot: +0.47100 ]
LCAOMinimize: Iter:   3  F: -1405.3542359485577435  |grad|_K:  9.958e-04  alpha:  1.644e-01  linmin: -4.503e-01  cgtest:  8.529e-01  t[s]:    211.56
LCAOMinimize: Encountered beta<0, resetting CG.
	FillingsUpdate:  mu: -0.023228887  nElectrons: 416.500000  magneticMoment: [ Abs: 2.13311  Tot: +0.44808 ]
LCAOMinimize: Iter:   4  F: -1405.4303468136120046  |grad|_K:  7.326e-05  alpha:  1.691e-01  linmin:  9.117e-02  cgtest: -2.337e-01  t[s]:    253.95
LCAOMinimize: 	Predicted alpha/alphaT>3.000000, increasing alphaT to 5.073406e-01.
LCAOMinimize: 	Predicted alpha/alphaT>3.000000, increasing alphaT to 1.522022e+00.
	FillingsUpdate:  mu: -0.023583792  nElectrons: 416.500000  magneticMoment: [ Abs: 0.42239  Tot: -0.01866 ]
LCAOMinimize: Iter:   5  F: -1405.4333035916329209  |grad|_K:  4.090e-05  alpha:  1.172e+00  linmin:  3.058e-02  cgtest:  1.515e-01  t[s]:    323.07
	FillingsUpdate:  mu: -0.025900405  nElectrons: 416.500000  magneticMoment: [ Abs: 0.28990  Tot: -0.04057 ]
LCAOMinimize: Iter:   6  F: -1405.4334522501039828  |grad|_K:  2.132e-05  alpha:  2.124e-01  linmin:  5.127e-03  cgtest:  1.281e-01  t[s]:    366.20
LCAOMinimize: 	Predicted alpha/alphaT>3.000000, increasing alphaT to 6.370888e-01.
	FillingsUpdate:  mu: -0.024826135  nElectrons: 416.500000  magneticMoment: [ Abs: 0.07500  Tot: -0.02476 ]
LCAOMinimize: Iter:   7  F: -1405.4335965272475732  |grad|_K:  5.036e-06  alpha:  7.030e-01  linmin: -4.419e-05  cgtest: -1.105e-01  t[s]:    421.43
	FillingsUpdate:  mu: -0.025205212  nElectrons: 416.500000  magneticMoment: [ Abs: 0.03363  Tot: -0.01135 ]
LCAOMinimize: Iter:   8  F: -1405.4336025808261184  |grad|_K:  4.922e-06  alpha:  5.255e-01  linmin: -5.599e-07  cgtest: -1.280e-03  t[s]:    464.13
	FillingsUpdate:  mu: -0.024974085  nElectrons: 416.500000  magneticMoment: [ Abs: 0.00315  Tot: -0.00035 ]
LCAOMinimize: Iter:   9  F: -1405.4336060277285014  |grad|_K:  9.297e-07  alpha:  3.132e-01  linmin:  5.360e-05  cgtest:  4.855e-04  t[s]:    506.53
	FillingsUpdate:  mu: -0.025027396  nElectrons: 416.500000  magneticMoment: [ Abs: 0.00250  Tot: +0.00068 ]
LCAOMinimize: Iter:  10  F: -1405.4336063064583868  |grad|_K:  4.567e-07  alpha:  7.098e-01  linmin: -8.821e-05  cgtest:  6.390e-04  t[s]:    548.97
	FillingsUpdate:  mu: -0.025001533  nElectrons: 416.500000  magneticMoment: [ Abs: 0.00231  Tot: +0.00060 ]
LCAOMinimize: Iter:  11  F: -1405.4336063266057408  |grad|_K:  1.742e-07  alpha:  2.124e-01  linmin: -3.508e-05  cgtest: -2.827e-04  t[s]:    591.92
LCAOMinimize: Converged (|Delta F|<1.000000e-06 for 2 iters).
----- createFluidSolver() ----- (Fluid-side solver setup)
   Initializing fluid molecule 'H2O'
     Initializing site 'O'
       Electron density: proportional to exp(-r/0.36935)*erfc((r-0.51523)/0.36823) with norm 6.826
       Charge density: gaussian nuclear width 0.478731 with net site charge 0.826
       Polarizability: cuspless exponential with width 0.32 and norm 3.73
       Hard sphere radius: 2.57003 bohrs
       Positions in reference frame:
         [ +0.000000 +0.000000 +0.000000 ]
     Initializing site 'H'
       Electron density: proportional to exp(-r/0.34641)*erfc((r-0)/0.390882) with norm 0.587
       Charge density: gaussian nuclear width 0.377945 with net site charge -0.413
       Polarizability: cuspless exponential with width 0.39 and norm 3.3
       Positions in reference frame:
         [ +0.000000 -1.441945 +1.122523 ]
         [ +0.000000 +1.441945 +1.122523 ]
     Net charge: 0   dipole magnitude: 0.927204
     Initializing spherical shell mfKernel with radius 2.61727 Bohr
     deltaS corrections:
       site 'O': -7.54299
       site 'H': -6.83917
   Initializing fluid molecule 'Na+'
     Initializing site 'Na'
       Electron density: proportional to exp(-r/0.19682)*erfc((r-0.71491)/0.41314) with norm 8.1383
       Charge density: gaussian nuclear width 0.365347 with net site charge -1
       Hard sphere radius: 1.86327 bohrs
       Positions in reference frame:
         [ +0.000000 +0.000000 +0.000000 ]
     Net charge: -1   dipole magnitude: 0
     Initializing gaussian mfKernel with width: 1.55004 Bohr
     deltaS corrections:
       site 'Na': -22.3555
   Initializing fluid molecule 'F-'
     Initializing site 'F'
       Electron density: proportional to exp(-r/0.38886)*erfc((r-0)/0.438782) with norm 8
       Charge density: gaussian nuclear width 0.374796 with net site charge 1
       Hard sphere radius: 2.39995 bohrs
       Positions in reference frame:
         [ +0.000000 +0.000000 +0.000000 ]
     Net charge: 1   dipole magnitude: 0
     Initializing gaussian mfKernel with width: 1.59012 Bohr
     deltaS corrections:
       site 'F': -9.04335

Correction to mu due to finite nuclear width = -0.0112064
   Cavity determined by nc: 0.00142 and sigma: 0.707107
   Nonlocal vdW cavity from gaussian model electron density with norm = 8 and sigma = 0.993594 bohr
   Charge asymmetry in cavity with sensitivity pCavity = 36.5 e-bohr/Eh
   Electrostatic cavity expanded by eta = 1.46 bohrs
   Weighted density cavitation model constrained by Nbulk: 0.0049383 bohr^-3, Pvap: 3.14029 kPa, Rvdw: 2.61727 bohr and sigmaBulk: 4.62e-05 Eh/bohr^2 at T: 298 K.
   Weighted density dispersion model using vdW pair potentials with single solvent site with sqrtC6eff: 0.77 SI.


---- Citations for features of the code used in this run ----

   Software package:
      R. Sundararaman, K. Letchworth-Weaver, K.A. Schwarz, D. Gunceler, Y. Ozhabes and T.A. Arias, 'JDFTx: software for joint density-functional theory', SoftwareX 6, 278 (2017)

   gga-PBE exchange-correlation functional:
      J.P. Perdew, K. Burke and M. Ernzerhof, Phys. Rev. Lett. 77, 3865 (1996)

   Pseudopotentials:
      KF Garrity, JW Bennett, KM Rabe and D Vanderbilt, Comput. Mater. Sci. 81, 446 (2014)

   Truncated Coulomb potentials:
      R. Sundararaman and T.A. Arias, Phys. Rev. B 87, 165122 (2013)

   Van der Waals correction pair-potentials:
      S. Grimme, J. Comput. Chem. 27, 1787 (2006)

   Charge-asymmetric nonlocally-determined local-electric (CANDLE) solvation model:
      R. Sundararaman and W.A. Goddard III, J. Chem. Phys. 142, 064107 (2015)

   Total energy minimization with Auxiliary Hamiltonian:
      C. Freysoldt, S. Boeck, and J. Neugebauer, Phys. Rev. B 79, 241103(R) (2009)

This list may not be complete. Please suggest additional citations or
report any other bugs at https://github.com/shankar1729/jdftx/issues

Initialization completed successfully at t[s]:    598.94

Fluid solver invoked on fresh (partially random / LCAO) wavefunctions
Running a vacuum solve first:

-------- Initial electronic minimization -----------
	FillingsUpdate:  mu: -0.025001533  nElectrons: 416.500000  magneticMoment: [ Abs: 0.00231  Tot: +0.00060 ]
ElecMinimize: Iter:   0  F: -1405.433606326602103  |grad|_K:  8.141e-05  alpha:  1.000e+00
	FillingsUpdate:  mu: +0.035002879  nElectrons: 416.500000  magneticMoment: [ Abs: 0.00114  Tot: +0.00012 ]
	SubspaceRotationAdjust: set factor to 1
ElecMinimize: Iter:   1  F: -1406.538518789220461  |grad|_K:  3.768e-05  alpha:  7.882e-01  linmin: -1.069e-05  t[s]:    690.94
	FillingsUpdate:  mu: -0.017151560  nElectrons: 416.500000  magneticMoment: [ Abs: 0.00056  Tot: +0.00005 ]
	SubspaceRotationAdjust: set factor to 0.682
ElecMinimize: Iter:   2  F: -1406.704199348369684  |grad|_K:  3.321e-05  alpha:  5.530e-01  linmin: -6.809e-06  t[s]:    747.35
	FillingsUpdate:  mu: +0.014238897  nElectrons: 416.500000  magneticMoment: [ Abs: 0.00037  Tot: -0.00002 ]
	SubspaceRotationAdjust: set factor to 0.441
ElecMinimize: Iter:   3  F: -1406.773575809486601  |grad|_K:  1.529e-05  alpha:  2.886e-01  linmin: -7.125e-05  t[s]:    803.86
	FillingsUpdate:  mu: +0.010622321  nElectrons: 416.500000  magneticMoment: [ Abs: 0.00032  Tot: -0.00003 ]
	SubspaceRotationAdjust: set factor to 0.534
ElecMinimize: Iter:   4  F: -1406.803359067969041  |grad|_K:  1.016e-05  alpha:  5.973e-01  linmin:  7.621e-05  t[s]:    860.42
	FillingsUpdate:  mu: +0.002528315  nElectrons: 416.500000  magneticMoment: [ Abs: 0.00029  Tot: -0.00003 ]
	SubspaceRotationAdjust: set factor to 0.529
ElecMinimize: Iter:   5  F: -1406.814926402425726  |grad|_K:  6.330e-06  alpha:  5.346e-01  linmin:  2.253e-05  t[s]:    916.98
	FillingsUpdate:  mu: +0.005923880  nElectrons: 416.500000  magneticMoment: [ Abs: 0.00023  Tot: -0.00002 ]
	SubspaceRotationAdjust: set factor to 0.594
ElecMinimize: Iter:   6  F: -1406.819769869268839  |grad|_K:  4.003e-06  alpha:  5.729e-01  linmin:  1.038e-05  t[s]:    973.62
	FillingsUpdate:  mu: +0.005179752  nElectrons: 416.500000  magneticMoment: [ Abs: 0.00015  Tot: -0.00001 ]
	SubspaceRotationAdjust: set factor to 0.701
ElecMinimize: Iter:   7  F: -1406.821914352404519  |grad|_K:  2.803e-06  alpha:  6.346e-01  linmin:  7.589e-06  t[s]:   1030.64
	FillingsUpdate:  mu: +0.003932868  nElectrons: 416.500000  magneticMoment: [ Abs: 0.00010  Tot: -0.00001 ]
	SubspaceRotationAdjust: set factor to 0.744
ElecMinimize: Iter:   8  F: -1406.822767743989289  |grad|_K:  1.739e-06  alpha:  5.138e-01  linmin:  2.602e-06  t[s]:   1086.99
	FillingsUpdate:  mu: +0.004843500  nElectrons: 416.500000  magneticMoment: [ Abs: 0.00006  Tot: -0.00000 ]
	SubspaceRotationAdjust: set factor to 0.694
ElecMinimize: Iter:   9  F: -1406.823123216443946  |grad|_K:  1.262e-06  alpha:  5.555e-01  linmin:  5.674e-06  t[s]:   1143.55
	FillingsUpdate:  mu: +0.003788079  nElectrons: 416.500000  magneticMoment: [ Abs: 0.00004  Tot: -0.00000 ]
	SubspaceRotationAdjust: set factor to 0.635
ElecMinimize: Iter:  10  F: -1406.823292415241667  |grad|_K:  8.801e-07  alpha:  5.034e-01  linmin:  3.779e-06  t[s]:   1199.75
	FillingsUpdate:  mu: +0.004034756  nElectrons: 416.500000  magneticMoment: [ Abs: 0.00003  Tot: -0.00000 ]
	SubspaceRotationAdjust: set factor to 0.683
ElecMinimize: Iter:  11  F: -1406.823391462517520  |grad|_K:  6.547e-07  alpha:  6.060e-01  linmin:  3.779e-06  t[s]:   1256.64
	FillingsUpdate:  mu: +0.004059211  nElectrons: 416.500000  magneticMoment: [ Abs: 0.00003  Tot: -0.00000 ]
	SubspaceRotationAdjust: set factor to 0.786
ElecMinimize: Iter:  12  F: -1406.823447934268415  |grad|_K:  5.244e-07  alpha:  6.242e-01  linmin:  2.299e-06  t[s]:   1313.09
	FillingsUpdate:  mu: +0.003721957  nElectrons: 416.500000  magneticMoment: [ Abs: 0.00002  Tot: -0.00000 ]
	SubspaceRotationAdjust: set factor to 0.779
ElecMinimize: Iter:  13  F: -1406.823485097359708  |grad|_K:  4.488e-07  alpha:  6.393e-01  linmin:  2.493e-06  t[s]:   1369.74
	FillingsUpdate:  mu: +0.004124835  nElectrons: 416.500000  magneticMoment: [ Abs: 0.00002  Tot: -0.00000 ]
	SubspaceRotationAdjust: set factor to 0.686
ElecMinimize: Iter:  14  F: -1406.823507454264245  |grad|_K:  3.525e-07  alpha:  5.249e-01  linmin:  7.673e-07  t[s]:   1425.75
	FillingsUpdate:  mu: +0.003970583  nElectrons: 416.500000  magneticMoment: [ Abs: 0.00002  Tot: +0.00000 ]
	SubspaceRotationAdjust: set factor to 0.699
ElecMinimize: Iter:  15  F: -1406.823522074847233  |grad|_K:  2.633e-07  alpha:  5.558e-01  linmin:  9.159e-07  t[s]:   1482.10
	FillingsUpdate:  mu: +0.003995636  nElectrons: 416.500000  magneticMoment: [ Abs: 0.00001  Tot: +0.00000 ]
	SubspaceRotationAdjust: set factor to 0.816
ElecMinimize: Iter:  16  F: -1406.823531664940674  |grad|_K:  2.093e-07  alpha:  6.537e-01  linmin:  5.848e-07  t[s]:   1538.92
	FillingsUpdate:  mu: +0.004106273  nElectrons: 416.500000  magneticMoment: [ Abs: 0.00001  Tot: +0.00000 ]
	SubspaceRotationAdjust: set factor to 0.877
ElecMinimize: Iter:  17  F: -1406.823536934002050  |grad|_K:  1.618e-07  alpha:  5.679e-01  linmin:  1.041e-07  t[s]:   1595.56
	FillingsUpdate:  mu: +0.003975699  nElectrons: 416.500000  magneticMoment: [ Abs: 0.00001  Tot: +0.00000 ]
	SubspaceRotationAdjust: set factor to 0.825
ElecMinimize: Iter:  18  F: -1406.823539762222936  |grad|_K:  1.240e-07  alpha:  5.098e-01  linmin:  1.512e-08  t[s]:   1651.94
	FillingsUpdate:  mu: +0.004047055  nElectrons: 416.500000  magneticMoment: [ Abs: 0.00001  Tot: +0.00000 ]
	SubspaceRotationAdjust: set factor to 0.75
ElecMinimize: Iter:  19  F: -1406.823541256349472  |grad|_K:  8.339e-08  alpha:  4.581e-01  linmin:  7.327e-08  t[s]:   1708.67
	FillingsUpdate:  mu: +0.004004166  nElectrons: 416.500000  magneticMoment: [ Abs: 0.00001  Tot: -0.00000 ]
	SubspaceRotationAdjust: set factor to 0.795
ElecMinimize: Iter:  20  F: -1406.823542064893900  |grad|_K:  5.995e-08  alpha:  5.490e-01  linmin:  1.808e-07  t[s]:   1765.51
	FillingsUpdate:  mu: +0.004002004  nElectrons: 416.500000  magneticMoment: [ Abs: 0.00001  Tot: -0.00000 ]
	SubspaceRotationAdjust: set factor to 0.926
ElecMinimize: Iter:  21  F: -1406.823542518898648  |grad|_K:  4.412e-08  alpha:  5.968e-01  linmin:  1.476e-07  t[s]:   1822.30
	FillingsUpdate:  mu: +0.004021570  nElectrons: 416.500000  magneticMoment: [ Abs: 0.00000  Tot: -0.00000 ]
	SubspaceRotationAdjust: set factor to 1.03
ElecMinimize: Iter:  22  F: -1406.823542754198570  |grad|_K:  3.352e-08  alpha:  5.708e-01  linmin:  5.875e-08  t[s]:   1878.81
	FillingsUpdate:  mu: +0.003999427  nElectrons: 416.500000  magneticMoment: [ Abs: 0.00000  Tot: -0.00000 ]
	SubspaceRotationAdjust: set factor to 0.93
ElecMinimize: Iter:  23  F: -1406.823542864833598  |grad|_K:  2.543e-08  alpha:  4.647e-01  linmin:  1.794e-08  t[s]:   1936.03
	FillingsUpdate:  mu: +0.004021290  nElectrons: 416.500000  magneticMoment: [ Abs: 0.00000  Tot: +0.00000 ]
	SubspaceRotationAdjust: set factor to 0.753
ElecMinimize: Iter:  24  F: -1406.823542917371697  |grad|_K:  1.761e-08  alpha:  3.834e-01  linmin:  7.654e-09  t[s]:   1992.92
	FillingsUpdate:  mu: +0.004012669  nElectrons: 416.500000  magneticMoment: [ Abs: 0.00000  Tot: +0.00000 ]
	SubspaceRotationAdjust: set factor to 0.767
ElecMinimize: Iter:  25  F: -1406.823542949370221  |grad|_K:  1.212e-08  alpha:  4.869e-01  linmin: -4.501e-08  t[s]:   2049.40
	FillingsUpdate:  mu: +0.004013040  nElectrons: 416.500000  magneticMoment: [ Abs: 0.00000  Tot: +0.00000 ]
	SubspaceRotationAdjust: set factor to 0.905
ElecMinimize: Iter:  26  F: -1406.823542967414141  |grad|_K:  9.065e-09  alpha:  5.794e-01  linmin:  2.294e-08  t[s]:   2106.84
	FillingsUpdate:  mu: +0.004017600  nElectrons: 416.500000  magneticMoment: [ Abs: 0.00000  Tot: +0.00000 ]
	SubspaceRotationAdjust: set factor to 0.971
ElecMinimize: Iter:  27  F: -1406.823542977160514  |grad|_K:  7.307e-09  alpha:  5.600e-01  linmin:  3.363e-08  t[s]:   2163.24
	FillingsUpdate:  mu: +0.004011624  nElectrons: 416.500000  magneticMoment: [ Abs: 0.00000  Tot: -0.00000 ]
	SubspaceRotationAdjust: set factor to 0.849
ElecMinimize: Iter:  28  F: -1406.823542982393064  |grad|_K:  5.817e-09  alpha:  4.633e-01  linmin:  3.490e-08  t[s]:   2219.29
ElecMinimize: Converged (|Delta F|<1.000000e-08 for 2 iters).
Setting wave functions to eigenvectors of Hamiltonian
Vacuum energy after initial minimize, F = -1406.823542982393064

	Linear fluid (dielectric constant: 78.4, screening length: 5.74355 Bohr) occupying 0.742173 of unit cell:	Completed after 13 iterations at t[s]:   2233.97

-------- Electronic minimization -----------
	Linear fluid (dielectric constant: 78.4, screening length: 5.74355 Bohr) occupying 0.742173 of unit cell:	Completed after 0 iterations at t[s]:   2250.73
	FillingsUpdate:  mu: -0.123659931  nElectrons: 416.500000  magneticMoment: [ Abs: 0.00000  Tot: -0.00000 ]
ElecMinimize: Iter:   0  F: -1406.874315591251388  |grad|_K:  1.258e-06  alpha:  1.000e+00
	Linear fluid (dielectric constant: 78.4, screening length: 5.74355 Bohr) occupying 0.742804 of unit cell:	Completed after 9 iterations at t[s]:   2296.34
	Linear fluid (dielectric constant: 78.4, screening length: 5.74355 Bohr) occupying 0.742500 of unit cell:	Completed after 7 iterations at t[s]:   2319.36
	FillingsUpdate:  mu: -0.125376476  nElectrons: 416.500000  magneticMoment: [ Abs: 0.00004  Tot: +0.00000 ]
	SubspaceRotationAdjust: set factor to 0.513
ElecMinimize: Iter:   1  F: -1406.874482557336933  |grad|_K:  1.251e-06  alpha:  5.014e-01  linmin:  5.229e-07  t[s]:   2346.31
	Linear fluid (dielectric constant: 78.4, screening length: 5.74355 Bohr) occupying 0.743053 of unit cell:	Completed after 9 iterations at t[s]:   2364.41
	Linear fluid (dielectric constant: 78.4, screening length: 5.74355 Bohr) occupying 0.742991 of unit cell:	Completed after 2 iterations at t[s]:   2386.65
	FillingsUpdate:  mu: -0.123706327  nElectrons: 416.500000  magneticMoment: [ Abs: 0.00007  Tot: +0.00000 ]
	SubspaceRotationAdjust: set factor to 0.303
ElecMinimize: Iter:   2  F: -1406.874627791414241  |grad|_K:  2.548e-07  alpha:  4.423e-01  linmin: -2.419e-06  t[s]:   2412.74
	Linear fluid (dielectric constant: 78.4, screening length: 5.74355 Bohr) occupying 0.743018 of unit cell:	Completed after 1 iterations at t[s]:   2429.33
	Linear fluid (dielectric constant: 78.4, screening length: 5.74355 Bohr) occupying 0.743039 of unit cell:	Completed after 2 iterations at t[s]:   2450.06
	FillingsUpdate:  mu: -0.123809310  nElectrons: 416.500000  magneticMoment: [ Abs: 0.00007  Tot: +0.00000 ]
	SubspaceRotationAdjust: set factor to 0.304
ElecMinimize: Iter:   3  F: -1406.874638937375266  |grad|_K:  1.880e-07  alpha:  8.007e-01  linmin:  7.686e-07  t[s]:   2476.38
	Linear fluid (dielectric constant: 78.4, screening length: 5.74355 Bohr) occupying 0.743076 of unit cell:	Completed after 2 iterations at t[s]:   2493.03
	Linear fluid (dielectric constant: 78.4, screening length: 5.74355 Bohr) occupying 0.743073 of unit cell:	Completed after 0 iterations at t[s]:   2513.41
	FillingsUpdate:  mu: -0.123733916  nElectrons: 416.500000  magneticMoment: [ Abs: 0.00006  Tot: +0.00000 ]
	SubspaceRotationAdjust: set factor to 0.316
ElecMinimize: Iter:   4  F: -1406.874644332661546  |grad|_K:  1.228e-07  alpha:  7.212e-01  linmin:  8.501e-06  t[s]:   2539.03
	Linear fluid (dielectric constant: 78.4, screening length: 5.74355 Bohr) occupying 0.743088 of unit cell:	Completed after 0 iterations at t[s]:   2555.02
	Linear fluid (dielectric constant: 78.4, screening length: 5.74355 Bohr) occupying 0.743085 of unit cell:	Completed after 0 iterations at t[s]:   2574.71
	FillingsUpdate:  mu: -0.123734672  nElectrons: 416.500000  magneticMoment: [ Abs: 0.00005  Tot: +0.00000 ]
	SubspaceRotationAdjust: set factor to 0.369
ElecMinimize: Iter:   5  F: -1406.874646170840151  |grad|_K:  7.222e-08  alpha:  5.795e-01  linmin:  3.222e-08  t[s]:   2600.30
	Linear fluid (dielectric constant: 78.4, screening length: 5.74355 Bohr) occupying 0.743086 of unit cell:	Completed after 0 iterations at t[s]:   2616.58
	Linear fluid (dielectric constant: 78.4, screening length: 5.74355 Bohr) occupying 0.743086 of unit cell:	Completed after 0 iterations at t[s]:   2636.20
	FillingsUpdate:  mu: -0.123734821  nElectrons: 416.500000  magneticMoment: [ Abs: 0.00004  Tot: +0.00000 ]
	SubspaceRotationAdjust: set factor to 0.447
ElecMinimize: Iter:   6  F: -1406.874646909881449  |grad|_K:  5.284e-08  alpha:  6.686e-01  linmin:  1.041e-07  t[s]:   2661.77
	Linear fluid (dielectric constant: 78.4, screening length: 5.74355 Bohr) occupying 0.743080 of unit cell:	Completed after 2 iterations at t[s]:   2678.26
	Linear fluid (dielectric constant: 78.4, screening length: 5.74355 Bohr) occupying 0.743082 of unit cell:	Completed after 0 iterations at t[s]:   2698.88
	FillingsUpdate:  mu: -0.123801345  nElectrons: 416.500000  magneticMoment: [ Abs: 0.00003  Tot: +0.00000 ]
	SubspaceRotationAdjust: set factor to 0.452
ElecMinimize: Iter:   7  F: -1406.874647120233249  |grad|_K:  4.753e-08  alpha:  4.426e-01  linmin: -1.159e-05  t[s]:   2724.46
	Linear fluid (dielectric constant: 78.4, screening length: 5.74355 Bohr) occupying 0.743075 of unit cell:	Completed after 0 iterations at t[s]:   2740.68
	Linear fluid (dielectric constant: 78.4, screening length: 5.74355 Bohr) occupying 0.743074 of unit cell:	Completed after 1 iterations at t[s]:   2760.76
	FillingsUpdate:  mu: -0.123750431  nElectrons: 416.500000  magneticMoment: [ Abs: 0.00002  Tot: -0.00000 ]
	SubspaceRotationAdjust: set factor to 0.408
ElecMinimize: Iter:   8  F: -1406.874647280780891  |grad|_K:  4.663e-08  alpha:  5.822e-01  linmin:  2.332e-05  t[s]:   2786.59
	Linear fluid (dielectric constant: 78.4, screening length: 5.74355 Bohr) occupying 0.743063 of unit cell:	Completed after 0 iterations at t[s]:   2802.98
	Linear fluid (dielectric constant: 78.4, screening length: 5.74355 Bohr) occupying 0.743069 of unit cell:	Completed after 0 iterations at t[s]:   2822.81
	FillingsUpdate:  mu: -0.123750203  nElectrons: 416.500000  magneticMoment: [ Abs: 0.00001  Tot: -0.00000 ]
	SubspaceRotationAdjust: set factor to 0.463
ElecMinimize: Iter:   9  F: -1406.874647354194167  |grad|_K:  3.207e-08  alpha:  2.823e-01  linmin: -4.556e-08  t[s]:   2848.03
	Linear fluid (dielectric constant: 78.4, screening length: 5.74355 Bohr) occupying 0.743066 of unit cell:	Completed after 0 iterations at t[s]:   2864.39
	Linear fluid (dielectric constant: 78.4, screening length: 5.74355 Bohr) occupying 0.743066 of unit cell:	Completed after 0 iterations at t[s]:   2884.08
	FillingsUpdate:  mu: -0.123749932  nElectrons: 416.500000  magneticMoment: [ Abs: 0.00001  Tot: -0.00000 ]
	SubspaceRotationAdjust: set factor to 0.569
ElecMinimize: Iter:  10  F: -1406.874647416884955  |grad|_K:  2.387e-08  alpha:  2.874e-01  linmin:  5.807e-08  t[s]:   2909.41
	Linear fluid (dielectric constant: 78.4, screening length: 5.74355 Bohr) occupying 0.743064 of unit cell:	Completed after 0 iterations at t[s]:   2925.66
	Linear fluid (dielectric constant: 78.4, screening length: 5.74355 Bohr) occupying 0.743064 of unit cell:	Completed after 0 iterations at t[s]:   2945.23
	FillingsUpdate:  mu: -0.123749448  nElectrons: 416.500000  magneticMoment: [ Abs: 0.00001  Tot: -0.00000 ]
	SubspaceRotationAdjust: set factor to 0.714
ElecMinimize: Iter:  11  F: -1406.874647465680255  |grad|_K:  2.264e-08  alpha:  4.042e-01  linmin: -3.401e-08  t[s]:   2970.55
	Linear fluid (dielectric constant: 78.4, screening length: 5.74355 Bohr) occupying 0.743062 of unit cell:	Completed after 1 iterations at t[s]:   2987.06
	Linear fluid (dielectric constant: 78.4, screening length: 5.74355 Bohr) occupying 0.743063 of unit cell:	Completed after 0 iterations at t[s]:   3007.18
ElecMinimize: 	Step increased F by 3.200466e-08, reducing alpha to 7.826143e-03.
	Linear fluid (dielectric constant: 78.4, screening length: 5.74355 Bohr) occupying 0.743064 of unit cell:	Completed after 0 iterations at t[s]:   3046.04
ElecMinimize: 	Step increased F by 1.473154e-08, reducing alpha to 7.826143e-04.
	Linear fluid (dielectric constant: 78.4, screening length: 5.74355 Bohr) occupying 0.743064 of unit cell:	Completed after 0 iterations at t[s]:   3084.70
ElecMinimize: 	Step increased F by 1.316107e-08, reducing alpha to 7.826143e-05.
ElecMinimize: 	Step failed to reduce F after 3 attempts. Quitting step.
ElecMinimize: 	Undoing step.
	Linear fluid (dielectric constant: 78.4, screening length: 5.74355 Bohr) occupying 0.743064 of unit cell:	Completed after 0 iterations at t[s]:   3123.06
ElecMinimize: 	Step failed: resetting search direction.
	FillingsUpdate:  mu: -0.123791764  nElectrons: 416.500000  magneticMoment: [ Abs: 0.00001  Tot: -0.00000 ]
	SubspaceRotationAdjust: set factor to 0.621
ElecMinimize: Iter:  12  F: -1406.874647452524869  |grad|_K:  4.101e-08  alpha:  7.826e-05
	Linear fluid (dielectric constant: 78.4, screening length: 5.74355 Bohr) occupying 0.743065 of unit cell:	Completed after 2 iterations at t[s]:   3165.06
	Linear fluid (dielectric constant: 78.4, screening length: 5.74355 Bohr) occupying 0.743064 of unit cell:	Completed after 0 iterations at t[s]:   3185.09
	FillingsUpdate:  mu: -0.123715872  nElectrons: 416.500000  magneticMoment: [ Abs: 0.00000  Tot: -0.00000 ]
	SubspaceRotationAdjust: set factor to 0.375
ElecMinimize: Iter:  13  F: -1406.874647503454980  |grad|_K:  4.566e-08  alpha:  1.456e-01  linmin:  2.483e-04  t[s]:   3210.99
	Linear fluid (dielectric constant: 78.4, screening length: 5.74355 Bohr) occupying 0.743065 of unit cell:	Completed after 0 iterations at t[s]:   3227.35
	Linear fluid (dielectric constant: 78.4, screening length: 5.74355 Bohr) occupying 0.743065 of unit cell:	Completed after 0 iterations at t[s]:   3246.79
	FillingsUpdate:  mu: -0.123715879  nElectrons: 416.500000  magneticMoment: [ Abs: 0.00000  Tot: -0.00000 ]
	SubspaceRotationAdjust: set factor to 0.27
ElecMinimize: Iter:  14  F: -1406.874647521784027  |grad|_K:  3.770e-08  alpha:  1.563e-01  linmin:  7.798e-09  t[s]:   3272.56
	Linear fluid (dielectric constant: 78.4, screening length: 5.74355 Bohr) occupying 0.743065 of unit cell:	Completed after 2 iterations at t[s]:   3289.15
	Linear fluid (dielectric constant: 78.4, screening length: 5.74355 Bohr) occupying 0.743065 of unit cell:	Completed after 0 iterations at t[s]:   3309.29
ElecMinimize: 	Step increased F by 4.328513e-08, reducing alpha to 5.255584e-03.
	Linear fluid (dielectric constant: 78.4, screening length: 5.74355 Bohr) occupying 0.743065 of unit cell:	Completed after 0 iterations at t[s]:   3348.14
ElecMinimize: 	Step increased F by 4.407957e-08, reducing alpha to 5.255584e-04.
	Linear fluid (dielectric constant: 78.4, screening length: 5.74355 Bohr) occupying 0.743065 of unit cell:	Completed after 0 iterations at t[s]:   3386.36
ElecMinimize: 	Step increased F by 4.423418e-08, reducing alpha to 5.255584e-05.
ElecMinimize: 	Step failed to reduce F after 3 attempts. Quitting step.
ElecMinimize: 	Undoing step.
	Linear fluid (dielectric constant: 78.4, screening length: 5.74355 Bohr) occupying 0.743065 of unit cell:	Completed after 0 iterations at t[s]:   3424.72
ElecMinimize: 	Step failed: resetting search direction.
	FillingsUpdate:  mu: -0.123764023  nElectrons: 416.500000  magneticMoment: [ Abs: 0.00000  Tot: -0.00000 ]
	SubspaceRotationAdjust: set factor to 0.232
ElecMinimize: Iter:  15  F: -1406.874647477525741  |grad|_K:  1.027e-08  alpha:  5.256e-05
	Linear fluid (dielectric constant: 78.4, screening length: 5.74355 Bohr) occupying 0.743065 of unit cell:	Completed after 0 iterations at t[s]:   3466.28
ElecMinimize: 	Predicted alpha/alphaT>3.000000, increasing alphaT to 4.690090e-01.
	Linear fluid (dielectric constant: 78.4, screening length: 5.74355 Bohr) occupying 0.743065 of unit cell:	Completed after 0 iterations at t[s]:   3485.59
	Linear fluid (dielectric constant: 78.4, screening length: 5.74355 Bohr) occupying 0.743065 of unit cell:	Completed after 0 iterations at t[s]:   3505.31
	FillingsUpdate:  mu: -0.123764151  nElectrons: 416.500000  magneticMoment: [ Abs: 0.00000  Tot: -0.00000 ]
	SubspaceRotationAdjust: set factor to 0.251
ElecMinimize: Iter:  16  F: -1406.874647489439667  |grad|_K:  8.752e-09  alpha:  5.330e-01  linmin: -4.327e-08  t[s]:   3530.78
	Linear fluid (dielectric constant: 78.4, screening length: 5.74355 Bohr) occupying 0.743065 of unit cell:	Completed after 0 iterations at t[s]:   3546.88
	Linear fluid (dielectric constant: 78.4, screening length: 5.74355 Bohr) occupying 0.743066 of unit cell:	Completed after 0 iterations at t[s]:   3566.51
	FillingsUpdate:  mu: -0.123764447  nElectrons: 416.500000  magneticMoment: [ Abs: 0.00000  Tot: -0.00000 ]
	SubspaceRotationAdjust: set factor to 0.267
ElecMinimize: Iter:  17  F: -1406.874647506381962  |grad|_K:  6.316e-09  alpha:  1.045e+00  linmin:  2.965e-07  t[s]:   3591.89
	Linear fluid (dielectric constant: 78.4, screening length: 5.74355 Bohr) occupying 0.743066 of unit cell:	Completed after 0 iterations at t[s]:   3607.97
	Linear fluid (dielectric constant: 78.4, screening length: 5.74355 Bohr) occupying 0.743066 of unit cell:	Completed after 0 iterations at t[s]:   3627.60
	FillingsUpdate:  mu: -0.123764466  nElectrons: 416.500000  magneticMoment: [ Abs: 0.00000  Tot: -0.00000 ]
	SubspaceRotationAdjust: set factor to 0.306
ElecMinimize: Iter:  18  F: -1406.874647510139539  |grad|_K:  3.005e-09  alpha:  4.466e-01  linmin:  7.479e-08  t[s]:   3652.93
	Linear fluid (dielectric constant: 78.4, screening length: 5.74355 Bohr) occupying 0.743066 of unit cell:	Completed after 0 iterations at t[s]:   3669.20
	Linear fluid (dielectric constant: 78.4, screening length: 5.74355 Bohr) occupying 0.743066 of unit cell:	Completed after 0 iterations at t[s]:   3688.76
	FillingsUpdate:  mu: -0.123764459  nElectrons: 416.500000  magneticMoment: [ Abs: 0.00000  Tot: +0.00000 ]
	SubspaceRotationAdjust: set factor to 0.328
ElecMinimize: Iter:  19  F: -1406.874647511807552  |grad|_K:  3.018e-09  alpha:  9.267e-01  linmin:  2.052e-06  t[s]:   3714.18
ElecMinimize: Converged (|Delta F|<1.000000e-08 for 2 iters).
Setting wave functions to eigenvectors of Hamiltonian
Single-point solvation energy estimate, DeltaF = -0.051104529414488

# Ionic positions in lattice coordinates:
ion W   0.083334439986111   0.166665542472221   0.500000000000000 1
ion W   0.333334439986111   0.166665542472221   0.500000000000000 1
ion W   0.583334439986111   0.166665542472221   0.500000000000000 1
ion W   0.833334439986111   0.166665542472221   0.500000000000000 1
ion W   0.083334439986111   0.416665542472221   0.500000000000000 1
ion W   0.333334439986111   0.416665542472221   0.500000000000000 1
ion W   0.583334439986111   0.416665542472221   0.500000000000000 1
ion W   0.833334439986111   0.416665542472221   0.500000000000000 1
ion W   0.083334439986111   0.666665542472221   0.500000000000000 1
ion W   0.333334439986111   0.666665542472221   0.500000000000000 1
ion W   0.583334439986111   0.666665542472221   0.500000000000000 1
ion W   0.833334439986111   0.666665542472221   0.500000000000000 1
ion W   0.083334439986111   0.916665542472221   0.500000000000000 1
ion W   0.333334439986111   0.916665542472221   0.500000000000000 1
ion W   0.583334439986111   0.916665542472221   0.500000000000000 1
ion W   0.833334439986111   0.916665542472221   0.500000000000000 1
ion Se   0.166667773319445   0.083332209138888   0.406896668529060 1
ion Se   0.166667773319445   0.083332209138888   0.593103331470940 1
ion Se   0.416667773319445   0.083332209138888   0.406896668529060 1
ion Se   0.416667773319445   0.083332209138888   0.593103331470940 1
ion Se   0.666667773319445   0.083332209138888   0.406896668529060 1
ion Se   0.666667773319445   0.083332209138888   0.593103331470940 1
ion Se   0.916667773319445   0.083332209138888   0.406896668529060 1
ion Se   0.916667773319445   0.083332209138888   0.593103331470940 1
ion Se   0.166667773319445   0.333332209138888   0.406896668529060 1
ion Se   0.166667773319445   0.333332209138888   0.593103331470940 1
ion Se   0.416667773319445   0.333332209138888   0.406896668529060 1
ion Se   0.416667773319445   0.333332209138888   0.593103331470940 1
ion Se   0.666667773319445   0.333332209138888   0.406896668529060 1
ion Se   0.666667773319445   0.333332209138888   0.593103331470940 1
ion Se   0.916667773319445   0.333332209138888   0.406896668529060 1
ion Se   0.916667773319445   0.333332209138888   0.593103331470940 1
ion Se   0.166667773319445   0.583332209138888   0.406896668529060 1
ion Se   0.166667773319445   0.583332209138888   0.593103331470940 1
ion Se   0.416667773319445   0.583332209138888   0.406896668529060 1
ion Se   0.416667773319445   0.583332209138888   0.593103331470940 1
ion Se   0.666667773319445   0.583332209138888   0.406896668529060 1
ion Se   0.666667773319445   0.583332209138888   0.593103331470940 1
ion Se   0.916667773319445   0.583332209138888   0.406896668529060 1
ion Se   0.916667773319445   0.583332209138888   0.593103331470940 1
ion Se   0.166667773319445   0.833332209138888   0.406896668529060 1
ion Se   0.166667773319445   0.833332209138888   0.593103331470940 1
ion Se   0.416667773319445   0.833332209138888   0.406896668529060 1
ion Se   0.416667773319445   0.833332209138888   0.593103331470940 1
ion Se   0.666667773319445   0.833332209138888   0.406896668529060 1
ion Se   0.666667773319445   0.833332209138888   0.593103331470940 1
ion Se   0.916667773319445   0.833332209138888   0.406896668529060 1
ion Se   0.916667773319445   0.833332209138888   0.593103331470940 1


# Forces in Lattice coordinates:
force W   0.000000000000000   0.000000000000000   0.000000000000000 1
force W  -0.000000000000000  -0.000000000000000   0.000000000000000 1
force W   0.000000000000000  -0.000000000000000  -0.000000000000000 1
force W   0.000000000000000  -0.000000000000000  -0.000000000000000 1
force W  -0.000000000000000   0.000000000000000   0.000000000000000 1
force W   0.000000000000000  -0.000000000000000   0.000000000000000 1
force W  -0.000000000000000   0.000000000000000   0.000000000000000 1
force W  -0.000000000000000  -0.000000000000000  -0.000000000000000 1
force W  -0.000000000000000  -0.000000000000000   0.000000000000000 1
force W   0.000000000000000   0.000000000000000   0.000000000000000 1
force W  -0.000000000000000  -0.000000000000000  -0.000000000000000 1
force W  -0.000000000000000  -0.000000000000000  -0.000000000000000 1
force W  -0.000000000000000  -0.000000000000000   0.000000000000000 1
force W  -0.000000000000000  -0.000000000000000  -0.000000000000000 1
force W  -0.000000000000000  -0.000000000000000  -0.000000000000000 1
force W  -0.000000000000000  -0.000000000000000  -0.000000000000000 1
force Se   0.000000000000000   0.000000000000000  -0.018256075679928 1
force Se  -0.000000000000000  -0.000000000000000   0.018256075679698 1
force Se   0.000000000000000   0.000000000000000  -0.018256075679815 1
force Se   0.000000000000000   0.000000000000000   0.018256075679701 1
force Se  -0.000000000000000   0.000000000000000  -0.018256075679701 1
force Se   0.000000000000000   0.000000000000000   0.018256075679814 1
force Se  -0.000000000000000   0.000000000000000  -0.018256075679702 1
force Se  -0.000000000000000  -0.000000000000000   0.018256075679815 1
force Se  -0.000000000000000   0.000000000000000  -0.018256075679702 1
force Se   0.000000000000000   0.000000000000000   0.018256075679588 1
force Se  -0.000000000000000  -0.000000000000000  -0.018256075679928 1
force Se   0.000000000000000  -0.000000000000000   0.018256075679814 1
force Se  -0.000000000000000  -0.000000000000000  -0.018256075679701 1
force Se   0.000000000000000  -0.000000000000000   0.018256075679587 1
force Se   0.000000000000000  -0.000000000000000  -0.018256075679588 1
force Se   0.000000000000000   0.000000000000000   0.018256075679701 1
force Se  -0.000000000000000   0.000000000000000  -0.018256075679587 1
force Se   0.000000000000000   0.000000000000000   0.018256075679814 1
force Se  -0.000000000000000  -0.000000000000000  -0.018256075679702 1
force Se   0.000000000000000  -0.000000000000000   0.018256075679814 1
force Se   0.000000000000000   0.000000000000000  -0.018256075679814 1
force Se   0.000000000000000  -0.000000000000000   0.018256075679814 1
force Se  -0.000000000000000  -0.000000000000000  -0.018256075679702 1
force Se  -0.000000000000000   0.000000000000000   0.018256075679588 1
force Se  -0.000000000000000  -0.000000000000000  -0.018256075679702 1
force Se  -0.000000000000000  -0.000000000000000   0.018256075679700 1
force Se  -0.000000000000000  -0.000000000000000  -0.018256075679814 1
force Se   0.000000000000000   0.000000000000000   0.018256075679587 1
force Se  -0.000000000000000  -0.000000000000000  -0.018256075679700 1
force Se   0.000000000000000  -0.000000000000000   0.018256075679815 1
force Se   0.000000000000000   0.000000000000000  -0.018256075679814 1
force Se   0.000000000000000  -0.000000000000000   0.018256075679701 1

# Energy components:
   A_diel =       -0.0458194522718538
   Eewald =     7935.1870961835611524
       EH =     9090.2282737501172960
     Eloc =   -18512.4240427056538465
      Enl =     -154.7943107960851989
      Exc =     -805.8219704501450451
 Exc_core =      564.8999477537579423
       KE =      475.9129519784537479
  MuShift =       -0.0056032069750538
-------------------------------------
     Etot =    -1406.8634769452417004
       TS =        0.0111705665658203
-------------------------------------
        F =    -1406.8746475118075523

IonicMinimize: Iter:   0  F: -1406.874647511807552  |grad|_K:  2.510e-04  t[s]:   3729.54

#--- Lowdin population analysis ---
# oxidation-state W -0.709 -0.709 -0.709 -0.709 -0.709 -0.709 -0.709 -0.709 -0.709 -0.709 -0.709 -0.709 -0.709 -0.709 -0.709 -0.709
# magnetic-moments W +0.000 +0.000 +0.000 +0.000 +0.000 +0.000 +0.000 +0.000 +0.000 +0.000 +0.000 +0.000 +0.000 +0.000 +0.000 +0.000
# oxidation-state Se +0.390 +0.390 +0.390 +0.390 +0.390 +0.390 +0.390 +0.390 +0.390 +0.390 +0.390 +0.390 +0.390 +0.390 +0.390 +0.390 +0.390 +0.390 +0.390 +0.390 +0.390 +0.390 +0.390 +0.390 +0.390 +0.390 +0.390 +0.390 +0.390 +0.390 +0.390 +0.390
# magnetic-moments Se -0.000 -0.000 -0.000 -0.000 -0.000 -0.000 -0.000 -0.000 -0.000 -0.000 -0.000 -0.000 -0.000 -0.000 -0.000 -0.000 -0.000 -0.000 -0.000 -0.000 -0.000 -0.000 -0.000 -0.000 -0.000 -0.000 -0.000 -0.000 -0.000 -0.000 -0.000 -0.000

	Linear fluid (dielectric constant: 78.4, screening length: 5.74355 Bohr) occupying 0.743048 of unit cell:	Completed after 2 iterations at t[s]:   3747.13

-------- Electronic minimization -----------
	Linear fluid (dielectric constant: 78.4, screening length: 5.74355 Bohr) occupying 0.743048 of unit cell:	Completed after 0 iterations at t[s]:   3763.65
	FillingsUpdate:  mu: -0.123700896  nElectrons: 416.500000  magneticMoment: [ Abs: 0.00001  Tot: +0.00000 ]
ElecMinimize: Iter:   0  F: -1406.874653989020317  |grad|_K:  8.299e-08  alpha:  1.000e+00
	Linear fluid (dielectric constant: 78.4, screening length: 5.74355 Bohr) occupying 0.743047 of unit cell:	Completed after 3 iterations at t[s]:   3808.38
	Linear fluid (dielectric constant: 78.4, screening length: 5.74355 Bohr) occupying 0.743047 of unit cell:	Completed after 1 iterations at t[s]:   3829.50
	FillingsUpdate:  mu: -0.123816575  nElectrons: 416.500000  magneticMoment: [ Abs: 0.00001  Tot: +0.00000 ]
	SubspaceRotationAdjust: set factor to 0.306
ElecMinimize: Iter:   1  F: -1406.874654972307098  |grad|_K:  4.672e-08  alpha:  6.503e-01  linmin:  4.050e-04  t[s]:   3855.56
	Linear fluid (dielectric constant: 78.4, screening length: 5.74355 Bohr) occupying 0.743049 of unit cell:	Completed after 0 iterations at t[s]:   3871.67
	Linear fluid (dielectric constant: 78.4, screening length: 5.74355 Bohr) occupying 0.743050 of unit cell:	Completed after 2 iterations at t[s]:   3891.91
	FillingsUpdate:  mu: -0.123782899  nElectrons: 416.500000  magneticMoment: [ Abs: 0.00001  Tot: -0.00000 ]
	SubspaceRotationAdjust: set factor to 0.363
ElecMinimize: Iter:   2  F: -1406.874655438572290  |grad|_K:  4.458e-08  alpha:  1.283e+00  linmin:  3.957e-04  t[s]:   3918.15
	Linear fluid (dielectric constant: 78.4, screening length: 5.74355 Bohr) occupying 0.743053 of unit cell:	Completed after 0 iterations at t[s]:   3934.44
	Linear fluid (dielectric constant: 78.4, screening length: 5.74355 Bohr) occupying 0.743051 of unit cell:	Completed after 0 iterations at t[s]:   3954.03
	FillingsUpdate:  mu: -0.123783505  nElectrons: 416.500000  magneticMoment: [ Abs: 0.00000  Tot: -0.00000 ]
	SubspaceRotationAdjust: set factor to 0.383
ElecMinimize: Iter:   3  F: -1406.874655631499081  |grad|_K:  2.819e-08  alpha:  5.562e-01  linmin:  5.697e-08  t[s]:   3979.56
	Linear fluid (dielectric constant: 78.4, screening length: 5.74355 Bohr) occupying 0.743052 of unit cell:	Completed after 0 iterations at t[s]:   3995.92
	Linear fluid (dielectric constant: 78.4, screening length: 5.74355 Bohr) occupying 0.743052 of unit cell:	Completed after 0 iterations at t[s]:   4015.64
	FillingsUpdate:  mu: -0.123783743  nElectrons: 416.500000  magneticMoment: [ Abs: 0.00000  Tot: -0.00000 ]
	SubspaceRotationAdjust: set factor to 0.386
ElecMinimize: Iter:   4  F: -1406.874655714444998  |grad|_K:  1.540e-08  alpha:  4.927e-01  linmin:  3.168e-08  t[s]:   4041.05
	Linear fluid (dielectric constant: 78.4, screening length: 5.74355 Bohr) occupying 0.743052 of unit cell:	Completed after 0 iterations at t[s]:   4057.26
	Linear fluid (dielectric constant: 78.4, screening length: 5.74355 Bohr) occupying 0.743052 of unit cell:	Completed after 0 iterations at t[s]:   4076.94
	FillingsUpdate:  mu: -0.123783659  nElectrons: 416.500000  magneticMoment: [ Abs: 0.00000  Tot: -0.00000 ]
	SubspaceRotationAdjust: set factor to 0.401
ElecMinimize: Iter:   5  F: -1406.874655740331946  |grad|_K:  9.132e-09  alpha:  5.146e-01  linmin: -5.298e-08  t[s]:   4102.71
	Linear fluid (dielectric constant: 78.4, screening length: 5.74355 Bohr) occupying 0.743053 of unit cell:	Completed after 1 iterations at t[s]:   4119.20
	Linear fluid (dielectric constant: 78.4, screening length: 5.74355 Bohr) occupying 0.743052 of unit cell:	Completed after 0 iterations at t[s]:   4139.65
ElecMinimize: 	Step increased F by 6.880532e-08, reducing alpha to 5.509968e-03.
	Linear fluid (dielectric constant: 78.4, screening length: 5.74355 Bohr) occupying 0.743052 of unit cell:	Completed after 0 iterations at t[s]:   4178.25
ElecMinimize: 	Step increased F by 6.979894e-08, reducing alpha to 5.509968e-04.
	Linear fluid (dielectric constant: 78.4, screening length: 5.74355 Bohr) occupying 0.743052 of unit cell:	Completed after 0 iterations at t[s]:   4217.08
ElecMinimize: 	Step increased F by 6.992286e-08, reducing alpha to 5.509968e-05.
ElecMinimize: 	Step failed to reduce F after 3 attempts. Quitting step.
ElecMinimize: 	Undoing step.
	Linear fluid (dielectric constant: 78.4, screening length: 5.74355 Bohr) occupying 0.743052 of unit cell:	Completed after 0 iterations at t[s]:   4255.44
ElecMinimize: 	Step failed: resetting search direction.
	FillingsUpdate:  mu: -0.123784117  nElectrons: 416.500000  magneticMoment: [ Abs: 0.00000  Tot: -0.00000 ]
	SubspaceRotationAdjust: set factor to 0.403
ElecMinimize: Iter:   6  F: -1406.874655670381571  |grad|_K:  1.860e-08  alpha:  5.510e-05
	Linear fluid (dielectric constant: 78.4, screening length: 5.74355 Bohr) occupying 0.743052 of unit cell:	Completed after 0 iterations at t[s]:   4297.43
	Linear fluid (dielectric constant: 78.4, screening length: 5.74355 Bohr) occupying 0.743052 of unit cell:	Completed after 0 iterations at t[s]:   4317.35
	FillingsUpdate:  mu: -0.123783474  nElectrons: 416.500000  magneticMoment: [ Abs: 0.00000  Tot: -0.00000 ]
	SubspaceRotationAdjust: set factor to 0.588
ElecMinimize: Iter:   7  F: -1406.874655707706779  |grad|_K:  9.718e-09  alpha:  5.105e-01  linmin: -1.195e-04  t[s]:   4343.24
	Linear fluid (dielectric constant: 78.4, screening length: 5.74355 Bohr) occupying 0.743053 of unit cell:	Completed after 0 iterations at t[s]:   4359.53
	Linear fluid (dielectric constant: 78.4, screening length: 5.74355 Bohr) occupying 0.743053 of unit cell:	Completed after 0 iterations at t[s]:   4379.09
	FillingsUpdate:  mu: -0.123783619  nElectrons: 416.500000  magneticMoment: [ Abs: 0.00000  Tot: -0.00000 ]
	SubspaceRotationAdjust: set factor to 0.755
ElecMinimize: Iter:   8  F: -1406.874655722743910  |grad|_K:  9.264e-09  alpha:  6.025e-01  linmin: -3.649e-08  t[s]:   4404.88
	Linear fluid (dielectric constant: 78.4, screening length: 5.74355 Bohr) occupying 0.743053 of unit cell:	Completed after 1 iterations at t[s]:   4421.45
	Linear fluid (dielectric constant: 78.4, screening length: 5.74355 Bohr) occupying 0.743053 of unit cell:	Completed after 0 iterations at t[s]:   4441.73
ElecMinimize: 	Step increased F by 2.947650e-08, reducing alpha to 5.809828e-03.
	Linear fluid (dielectric constant: 78.4, screening length: 5.74355 Bohr) occupying 0.743053 of unit cell:	Completed after 0 iterations at t[s]:   4480.15
ElecMinimize: 	Step increased F by 2.438537e-08, reducing alpha to 5.809828e-04.
	Linear fluid (dielectric constant: 78.4, screening length: 5.74355 Bohr) occupying 0.743053 of unit cell:	Completed after 0 iterations at t[s]:   4518.33
ElecMinimize: 	Step increased F by 2.386992e-08, reducing alpha to 5.809828e-05.
ElecMinimize: 	Step failed to reduce F after 3 attempts. Quitting step.
ElecMinimize: 	Undoing step.
	Linear fluid (dielectric constant: 78.4, screening length: 5.74355 Bohr) occupying 0.743053 of unit cell:	Completed after 0 iterations at t[s]:   4557.43
ElecMinimize: 	Step failed: resetting search direction.
	FillingsUpdate:  mu: -0.123758958  nElectrons: 416.500000  magneticMoment: [ Abs: 0.00000  Tot: -0.00000 ]
	SubspaceRotationAdjust: set factor to 0.59
ElecMinimize: Iter:   9  F: -1406.874655698857850  |grad|_K:  3.002e-08  alpha:  5.810e-05
	Linear fluid (dielectric constant: 78.4, screening length: 5.74355 Bohr) occupying 0.743051 of unit cell:	Completed after 2 iterations at t[s]:   4599.80
	Linear fluid (dielectric constant: 78.4, screening length: 5.74355 Bohr) occupying 0.743052 of unit cell:	Completed after 2 iterations at t[s]:   4620.65
	FillingsUpdate:  mu: -0.123790495  nElectrons: 416.500000  magneticMoment: [ Abs: 0.00000  Tot: -0.00000 ]
	SubspaceRotationAdjust: set factor to 0.235
ElecMinimize: Iter:  10  F: -1406.874655712230606  |grad|_K:  1.012e-08  alpha:  1.833e-01  linmin:  3.263e-04  t[s]:   4646.87
	Linear fluid (dielectric constant: 78.4, screening length: 5.74355 Bohr) occupying 0.743052 of unit cell:	Completed after 0 iterations at t[s]:   4662.98
ElecMinimize: 	Predicted alpha/alphaT>3.000000, increasing alphaT to 5.500082e-01.
	Linear fluid (dielectric constant: 78.4, screening length: 5.74355 Bohr) occupying 0.743052 of unit cell:	Completed after 0 iterations at t[s]:   4682.73
	Linear fluid (dielectric constant: 78.4, screening length: 5.74355 Bohr) occupying 0.743053 of unit cell:	Completed after 1 iterations at t[s]:   4702.63
ElecMinimize: 	Step increased F by 2.190154e-08, reducing alpha to 1.331630e-01.
	Linear fluid (dielectric constant: 78.4, screening length: 5.74355 Bohr) occupying 0.743052 of unit cell:	Completed after 0 iterations at t[s]:   4741.61
	FillingsUpdate:  mu: -0.123778191  nElectrons: 416.500000  magneticMoment: [ Abs: 0.00000  Tot: -0.00000 ]
	SubspaceRotationAdjust: set factor to 0.1
ElecMinimize: Iter:  11  F: -1406.874655718035001  |grad|_K:  4.680e-09  alpha:  1.332e-01  linmin:  4.373e-05  t[s]:   4767.32
	Linear fluid (dielectric constant: 78.4, screening length: 5.74355 Bohr) occupying 0.743052 of unit cell:	Completed after 0 iterations at t[s]:   4783.61
ElecMinimize: 	Predicted alpha/alphaT>3.000000, increasing alphaT to 3.994889e-01.
	Linear fluid (dielectric constant: 78.4, screening length: 5.74355 Bohr) occupying 0.743052 of unit cell:	Completed after 0 iterations at t[s]:   4803.00
	Linear fluid (dielectric constant: 78.4, screening length: 5.74355 Bohr) occupying 0.743052 of unit cell:	Completed after 0 iterations at t[s]:   4822.37
	FillingsUpdate:  mu: -0.123778192  nElectrons: 416.500000  magneticMoment: [ Abs: 0.00000  Tot: -0.00000 ]
	SubspaceRotationAdjust: set factor to 0.158
ElecMinimize: Iter:  12  F: -1406.874655721514500  |grad|_K:  3.801e-09  alpha:  9.548e-01  linmin:  1.986e-06  t[s]:   4847.91
ElecMinimize: Converged (|Delta F|<1.000000e-08 for 2 iters).
Setting wave functions to eigenvectors of Hamiltonian

# Ionic positions in lattice coordinates:
ion W   0.083334439986111   0.166665542472221   0.500000000000000 1
ion W   0.333334439986111   0.166665542472221   0.500000000000000 1
ion W   0.583334439986111   0.166665542472221   0.500000000000000 1
ion W   0.833334439986111   0.166665542472221   0.500000000000000 1
ion W   0.083334439986111   0.416665542472221   0.500000000000000 1
ion W   0.333334439986111   0.416665542472221   0.500000000000000 1
ion W   0.583334439986111   0.416665542472221   0.500000000000000 1
ion W   0.833334439986111   0.416665542472221   0.500000000000000 1
ion W   0.083334439986111   0.666665542472221   0.500000000000000 1
ion W   0.333334439986111   0.666665542472221   0.500000000000000 1
ion W   0.583334439986111   0.666665542472221   0.500000000000000 1
ion W   0.833334439986111   0.666665542472221   0.500000000000000 1
ion W   0.083334439986111   0.916665542472221   0.500000000000000 1
ion W   0.333334439986111   0.916665542472221   0.500000000000000 1
ion W   0.583334439986111   0.916665542472221   0.500000000000000 1
ion W   0.833334439986111   0.916665542472221   0.500000000000000 1
ion Se   0.166667773319445   0.083332209138888   0.406881143116454 1
ion Se   0.166667773319445   0.083332209138888   0.593118856883546 1
ion Se   0.416667773319445   0.083332209138888   0.406881143116454 1
ion Se   0.416667773319445   0.083332209138888   0.593118856883546 1
ion Se   0.666667773319445   0.083332209138888   0.406881143116454 1
ion Se   0.666667773319445   0.083332209138888   0.593118856883546 1
ion Se   0.916667773319445   0.083332209138888   0.406881143116454 1
ion Se   0.916667773319445   0.083332209138888   0.593118856883546 1
ion Se   0.166667773319445   0.333332209138888   0.406881143116454 1
ion Se   0.166667773319445   0.333332209138888   0.593118856883546 1
ion Se   0.416667773319445   0.333332209138888   0.406881143116454 1
ion Se   0.416667773319445   0.333332209138888   0.593118856883546 1
ion Se   0.666667773319445   0.333332209138888   0.406881143116454 1
ion Se   0.666667773319445   0.333332209138888   0.593118856883546 1
ion Se   0.916667773319445   0.333332209138888   0.406881143116454 1
ion Se   0.916667773319445   0.333332209138888   0.593118856883546 1
ion Se   0.166667773319445   0.583332209138888   0.406881143116454 1
ion Se   0.166667773319445   0.583332209138888   0.593118856883546 1
ion Se   0.416667773319445   0.583332209138888   0.406881143116454 1
ion Se   0.416667773319445   0.583332209138888   0.593118856883546 1
ion Se   0.666667773319445   0.583332209138888   0.406881143116454 1
ion Se   0.666667773319445   0.583332209138888   0.593118856883546 1
ion Se   0.916667773319445   0.583332209138888   0.406881143116454 1
ion Se   0.916667773319445   0.583332209138888   0.593118856883546 1
ion Se   0.166667773319445   0.833332209138888   0.406881143116454 1
ion Se   0.166667773319445   0.833332209138888   0.593118856883546 1
ion Se   0.416667773319445   0.833332209138888   0.406881143116454 1
ion Se   0.416667773319445   0.833332209138888   0.593118856883546 1
ion Se   0.666667773319445   0.833332209138888   0.406881143116454 1
ion Se   0.666667773319445   0.833332209138888   0.593118856883546 1
ion Se   0.916667773319445   0.833332209138888   0.406881143116454 1
ion Se   0.916667773319445   0.833332209138888   0.593118856883546 1


# Forces in Lattice coordinates:
force W   0.000000000000000   0.000000000000000  -0.000000000000000 1
force W   0.000000000000000   0.000000000000000  -0.000000000000000 1
force W   0.000000000000000   0.000000000000000   0.000000000000000 1
force W  -0.000000000000000   0.000000000000000  -0.000000000000000 1
force W   0.000000000000000   0.000000000000000  -0.000000000000000 1
force W   0.000000000000000   0.000000000000000  -0.000000000000000 1
force W  -0.000000000000000   0.000000000000000  -0.000000000000000 1
force W  -0.000000000000000   0.000000000000000  -0.000000000000000 1
force W  -0.000000000000000   0.000000000000000   0.000000000000000 1
force W   0.000000000000000   0.000000000000000  -0.000000000000000 1
force W   0.000000000000000   0.000000000000000   0.000000000000000 1
force W   0.000000000000000   0.000000000000000  -0.000000000000000 1
force W  -0.000000000000000   0.000000000000000  -0.000000000000000 1
force W  -0.000000000000000   0.000000000000000  -0.000000000000000 1
force W   0.000000000000000   0.000000000000000  -0.000000000000000 1
force W   0.000000000000000   0.000000000000000  -0.000000000000000 1
force Se   0.000000000000000   0.000000000000000  -0.014202811972726 1
force Se  -0.000000000000000   0.000000000000000   0.014202811972495 1
force Se   0.000000000000000   0.000000000000000  -0.014202811972726 1
force Se  -0.000000000000000   0.000000000000000   0.014202811972384 1
force Se   0.000000000000000   0.000000000000000  -0.014202811972499 1
force Se  -0.000000000000000  -0.000000000000000   0.014202811972611 1
force Se   0.000000000000000   0.000000000000000  -0.014202811972613 1
force Se  -0.000000000000000   0.000000000000000   0.014202811972501 1
force Se   0.000000000000000  -0.000000000000000  -0.014202811972613 1
force Se  -0.000000000000000   0.000000000000000   0.014202811972498 1
force Se   0.000000000000000  -0.000000000000000  -0.014202811972726 1
force Se  -0.000000000000000  -0.000000000000000   0.014202811972495 1
force Se  -0.000000000000000  -0.000000000000000  -0.014202811972726 1
force Se  -0.000000000000000  -0.000000000000000   0.014202811972609 1
force Se   0.000000000000000  -0.000000000000000  -0.014202811972613 1
force Se  -0.000000000000000   0.000000000000000   0.014202811972498 1
force Se   0.000000000000000  -0.000000000000000  -0.014202811972726 1
force Se  -0.000000000000000  -0.000000000000000   0.014202811972498 1
force Se   0.000000000000000  -0.000000000000000  -0.014202811972612 1
force Se  -0.000000000000000   0.000000000000000   0.014202811972498 1
force Se  -0.000000000000000   0.000000000000000  -0.014202811972612 1
force Se  -0.000000000000000  -0.000000000000000   0.014202811972268 1
force Se   0.000000000000000  -0.000000000000000  -0.014202811972613 1
force Se  -0.000000000000000  -0.000000000000000   0.014202811972612 1
force Se   0.000000000000000   0.000000000000000  -0.014202811972726 1
force Se  -0.000000000000000   0.000000000000000   0.014202811972497 1
force Se   0.000000000000000   0.000000000000000  -0.014202811972612 1
force Se  -0.000000000000000   0.000000000000000   0.014202811972612 1
force Se   0.000000000000000   0.000000000000000  -0.014202811972613 1
force Se  -0.000000000000000   0.000000000000000   0.014202811972499 1
force Se   0.000000000000000  -0.000000000000000  -0.014202811972726 1
force Se  -0.000000000000000   0.000000000000000   0.014202811972382 1

# Energy components:
   A_diel =       -0.0458182944590770
   Eewald =     7934.8677626940580012
       EH =     9089.9027709592592146
     Eloc =   -18511.7736957690030977
      Enl =     -154.7929377991046351
      Exc =     -805.8180330516009917
 Exc_core =      564.8999437210015913
       KE =      475.9021243420863811
  MuShift =       -0.0056032069750538
-------------------------------------
     Etot =    -1406.8634864047380688
       TS =        0.0111693167763968
-------------------------------------
        F =    -1406.8746557215145003

IonicMinimize: Iter:   1  F: -1406.874655721514500  |grad|_K:  1.952e-04  alpha:  1.000e+00  linmin: -1.000e+00  t[s]:   4863.38

#--- Lowdin population analysis ---
# oxidation-state W -0.708 -0.708 -0.708 -0.708 -0.708 -0.708 -0.708 -0.708 -0.708 -0.708 -0.708 -0.708 -0.708 -0.708 -0.708 -0.708
# magnetic-moments W +0.000 +0.000 +0.000 +0.000 +0.000 +0.000 +0.000 +0.000 +0.000 +0.000 +0.000 +0.000 +0.000 +0.000 +0.000 +0.000
# oxidation-state Se +0.390 +0.390 +0.390 +0.390 +0.390 +0.390 +0.390 +0.390 +0.390 +0.390 +0.390 +0.390 +0.390 +0.390 +0.390 +0.390 +0.390 +0.390 +0.390 +0.390 +0.390 +0.390 +0.390 +0.390 +0.390 +0.390 +0.390 +0.390 +0.390 +0.390 +0.390 +0.390
# magnetic-moments Se -0.000 -0.000 -0.000 -0.000 -0.000 -0.000 -0.000 -0.000 -0.000 -0.000 -0.000 -0.000 -0.000 -0.000 -0.000 -0.000 -0.000 -0.000 -0.000 -0.000 -0.000 -0.000 -0.000 -0.000 -0.000 -0.000 -0.000 -0.000 -0.000 -0.000 -0.000 -0.000

	Linear fluid (dielectric constant: 78.4, screening length: 5.74355 Bohr) occupying 0.742989 of unit cell:	Completed after 5 iterations at t[s]:   4881.73

-------- Electronic minimization -----------
	Linear fluid (dielectric constant: 78.4, screening length: 5.74355 Bohr) occupying 0.742989 of unit cell:	Completed after 0 iterations at t[s]:   4898.79
	FillingsUpdate:  mu: -0.123604681  nElectrons: 416.500000  magneticMoment: [ Abs: 0.00003  Tot: +0.00000 ]
ElecMinimize: Iter:   0  F: -1406.874654298156202  |grad|_K:  2.093e-07  alpha:  1.000e+00
	Linear fluid (dielectric constant: 78.4, screening length: 5.74355 Bohr) occupying 0.742989 of unit cell:	Completed after 3 iterations at t[s]:   4943.13
	Linear fluid (dielectric constant: 78.4, screening length: 5.74355 Bohr) occupying 0.742989 of unit cell:	Completed after 2 iterations at t[s]:   4964.32
	FillingsUpdate:  mu: -0.123870064  nElectrons: 416.500000  magneticMoment: [ Abs: 0.00003  Tot: +0.00000 ]
	SubspaceRotationAdjust: set factor to 0.184
ElecMinimize: Iter:   1  F: -1406.874661988237449  |grad|_K:  1.229e-07  alpha:  8.344e-01  linmin: -4.400e-05  t[s]:   4990.28
	Linear fluid (dielectric constant: 78.4, screening length: 5.74355 Bohr) occupying 0.742990 of unit cell:	Completed after 0 iterations at t[s]:   5006.19
	Linear fluid (dielectric constant: 78.4, screening length: 5.74355 Bohr) occupying 0.742991 of unit cell:	Completed after 2 iterations at t[s]:   5026.41
	FillingsUpdate:  mu: -0.123887324  nElectrons: 416.500000  magneticMoment: [ Abs: 0.00003  Tot: -0.00000 ]
	SubspaceRotationAdjust: set factor to 0.23
ElecMinimize: Iter:   2  F: -1406.874666715898911  |grad|_K:  1.352e-07  alpha:  1.567e+00  linmin:  3.729e-04  t[s]:   5052.66
	Linear fluid (dielectric constant: 78.4, screening length: 5.74355 Bohr) occupying 0.742996 of unit cell:	Completed after 2 iterations at t[s]:   5069.33
	Linear fluid (dielectric constant: 78.4, screening length: 5.74355 Bohr) occupying 0.742993 of unit cell:	Completed after 0 iterations at t[s]:   5089.58
	FillingsUpdate:  mu: -0.123849931  nElectrons: 416.500000  magneticMoment: [ Abs: 0.00002  Tot: -0.00000 ]
	SubspaceRotationAdjust: set factor to 0.266
ElecMinimize: Iter:   3  F: -1406.874669558588948  |grad|_K:  1.112e-07  alpha:  7.519e-01  linmin:  9.759e-05  t[s]:   5115.12
	Linear fluid (dielectric constant: 78.4, screening length: 5.74355 Bohr) occupying 0.742997 of unit cell:	Completed after 1 iterations at t[s]:   5131.95
	Linear fluid (dielectric constant: 78.4, screening length: 5.74355 Bohr) occupying 0.742996 of unit cell:	Completed after 0 iterations at t[s]:   5152.10
	FillingsUpdate:  mu: -0.123850086  nElectrons: 416.500000  magneticMoment: [ Abs: 0.00001  Tot: -0.00000 ]
	SubspaceRotationAdjust: set factor to 0.298
ElecMinimize: Iter:   4  F: -1406.874671057112892  |grad|_K:  7.402e-08  alpha:  5.993e-01  linmin: -5.473e-05  t[s]:   5177.58
	Linear fluid (dielectric constant: 78.4, screening length: 5.74355 Bohr) occupying 0.742999 of unit cell:	Completed after 0 iterations at t[s]:   5193.64
	Linear fluid (dielectric constant: 78.4, screening length: 5.74355 Bohr) occupying 0.742999 of unit cell:	Completed after 0 iterations at t[s]:   5213.47
	FillingsUpdate:  mu: -0.123850595  nElectrons: 416.500000  magneticMoment: [ Abs: 0.00001  Tot: -0.00000 ]
	SubspaceRotationAdjust: set factor to 0.331
ElecMinimize: Iter:   5  F: -1406.874671738571124  |grad|_K:  4.739e-08  alpha:  5.703e-01  linmin:  2.496e-09  t[s]:   5238.91
	Linear fluid (dielectric constant: 78.4, screening length: 5.74355 Bohr) occupying 0.743001 of unit cell:	Completed after 0 iterations at t[s]:   5255.34
	Linear fluid (dielectric constant: 78.4, screening length: 5.74355 Bohr) occupying 0.743001 of unit cell:	Completed after 0 iterations at t[s]:   5275.21
	FillingsUpdate:  mu: -0.123850848  nElectrons: 416.500000  magneticMoment: [ Abs: 0.00001  Tot: -0.00000 ]
	SubspaceRotationAdjust: set factor to 0.381
ElecMinimize: Iter:   6  F: -1406.874671978841661  |grad|_K:  2.943e-08  alpha:  5.113e-01  linmin: -3.073e-05  t[s]:   5300.95
	Linear fluid (dielectric constant: 78.4, screening length: 5.74355 Bohr) occupying 0.743003 of unit cell:	Completed after 0 iterations at t[s]:   5317.21
	Linear fluid (dielectric constant: 78.4, screening length: 5.74355 Bohr) occupying 0.743003 of unit cell:	Completed after 0 iterations at t[s]:   5337.27
	FillingsUpdate:  mu: -0.123848674  nElectrons: 416.500000  magneticMoment: [ Abs: 0.00000  Tot: -0.00000 ]
	SubspaceRotationAdjust: set factor to 0.491
ElecMinimize: Iter:   7  F: -1406.874672075982289  |grad|_K:  1.617e-08  alpha:  5.040e-01  linmin: -4.095e-05  t[s]:   5362.61
	Linear fluid (dielectric constant: 78.4, screening length: 5.74355 Bohr) occupying 0.743004 of unit cell:	Completed after 0 iterations at t[s]:   5378.66
	Linear fluid (dielectric constant: 78.4, screening length: 5.74355 Bohr) occupying 0.743004 of unit cell:	Completed after 1 iterations at t[s]:   5398.67
ElecMinimize: 	Step increased F by 6.848700e-08, reducing alpha to 7.662698e-02.
	Linear fluid (dielectric constant: 78.4, screening length: 5.74355 Bohr) occupying 0.743003 of unit cell:	Completed after 0 iterations at t[s]:   5437.74
ElecMinimize: 	Step increased F by 3.277091e-08, reducing alpha to 7.662698e-03.
	Linear fluid (dielectric constant: 78.4, screening length: 5.74355 Bohr) occupying 0.743003 of unit cell:	Completed after 0 iterations at t[s]:   5476.47
ElecMinimize: 	Step increased F by 3.338528e-08, reducing alpha to 7.662698e-04.
ElecMinimize: 	Step failed to reduce F after 3 attempts. Quitting step.
ElecMinimize: 	Undoing step.
	Linear fluid (dielectric constant: 78.4, screening length: 5.74355 Bohr) occupying 0.743003 of unit cell:	Completed after 0 iterations at t[s]:   5514.84
ElecMinimize: 	Step failed: resetting search direction.
	FillingsUpdate:  mu: -0.123801396  nElectrons: 416.500000  magneticMoment: [ Abs: 0.00000  Tot: -0.00000 ]
	SubspaceRotationAdjust: set factor to 0.433
ElecMinimize: Iter:   8  F: -1406.874672042567454  |grad|_K:  3.360e-08  alpha:  7.663e-04
	Linear fluid (dielectric constant: 78.4, screening length: 5.74355 Bohr) occupying 0.743002 of unit cell:	Completed after 2 iterations at t[s]:   5557.12
	Linear fluid (dielectric constant: 78.4, screening length: 5.74355 Bohr) occupying 0.743002 of unit cell:	Completed after 0 iterations at t[s]:   5577.43
	FillingsUpdate:  mu: -0.123864504  nElectrons: 416.500000  magneticMoment: [ Abs: 0.00000  Tot: -0.00000 ]
	SubspaceRotationAdjust: set factor to 0.238
ElecMinimize: Iter:   9  F: -1406.874672098115525  |grad|_K:  2.845e-08  alpha:  2.206e-01  linmin:  3.352e-04  t[s]:   5603.13
	Linear fluid (dielectric constant: 78.4, screening length: 5.74355 Bohr) occupying 0.743002 of unit cell:	Completed after 0 iterations at t[s]:   5619.32
	Linear fluid (dielectric constant: 78.4, screening length: 5.74355 Bohr) occupying 0.743002 of unit cell:	Completed after 0 iterations at t[s]:   5639.42
	FillingsUpdate:  mu: -0.123864405  nElectrons: 416.500000  magneticMoment: [ Abs: 0.00000  Tot: +0.00000 ]
	SubspaceRotationAdjust: set factor to 0.251
ElecMinimize: Iter:  10  F: -1406.874672141038673  |grad|_K:  2.476e-08  alpha:  5.817e-01  linmin:  2.234e-07  t[s]:   5665.27
	Linear fluid (dielectric constant: 78.4, screening length: 5.74355 Bohr) occupying 0.743003 of unit cell:	Completed after 2 iterations at t[s]:   5682.24
	Linear fluid (dielectric constant: 78.4, screening length: 5.74355 Bohr) occupying 0.743003 of unit cell:	Completed after 0 iterations at t[s]:   5702.75
ElecMinimize: 	Step increased F by 2.981551e-08, reducing alpha to 1.470817e-02.
	Linear fluid (dielectric constant: 78.4, screening length: 5.74355 Bohr) occupying 0.743003 of unit cell:	Completed after 0 iterations at t[s]:   5741.93
ElecMinimize: 	Step increased F by 3.108653e-09, reducing alpha to 1.470817e-03.
	Linear fluid (dielectric constant: 78.4, screening length: 5.74355 Bohr) occupying 0.743002 of unit cell:	Completed after 0 iterations at t[s]:   5781.03
ElecMinimize: 	Step increased F by 6.634764e-10, reducing alpha to 1.470817e-04.
ElecMinimize: 	Step failed to reduce F after 3 attempts. Quitting step.
ElecMinimize: 	Undoing step.
	Linear fluid (dielectric constant: 78.4, screening length: 5.74355 Bohr) occupying 0.743002 of unit cell:	Completed after 0 iterations at t[s]:   5819.83
ElecMinimize: 	Step failed: resetting search direction.
	FillingsUpdate:  mu: -0.123798894  nElectrons: 416.500000  magneticMoment: [ Abs: 0.00000  Tot: +0.00000 ]
	SubspaceRotationAdjust: set factor to 0.183
ElecMinimize: Iter:  11  F: -1406.874672140391112  |grad|_K:  3.016e-08  alpha:  1.471e-04
	Linear fluid (dielectric constant: 78.4, screening length: 5.74355 Bohr) occupying 0.743002 of unit cell:	Completed after 2 iterations at t[s]:   5862.34
	Linear fluid (dielectric constant: 78.4, screening length: 5.74355 Bohr) occupying 0.743002 of unit cell:	Completed after 0 iterations at t[s]:   5882.88
ElecMinimize: 	Step increased F by 1.526200e-08, reducing alpha to 1.790196e-02.
	Linear fluid (dielectric constant: 78.4, screening length: 5.74355 Bohr) occupying 0.743002 of unit cell:	Completed after 1 iterations at t[s]:   5922.23
ElecMinimize: 	Step increased F by 3.786022e-08, reducing alpha to 1.790196e-03.
	Linear fluid (dielectric constant: 78.4, screening length: 5.74355 Bohr) occupying 0.743002 of unit cell:	Completed after 0 iterations at t[s]:   5962.14
ElecMinimize: 	Step increased F by 3.799141e-08, reducing alpha to 1.790196e-04.
ElecMinimize: 	Step failed to reduce F after 3 attempts. Quitting step.
ElecMinimize: 	Undoing step.
	Linear fluid (dielectric constant: 78.4, screening length: 5.74355 Bohr) occupying 0.743002 of unit cell:	Completed after 0 iterations at t[s]:   6001.12
ElecMinimize: 	Step failed along negative gradient direction.
ElecMinimize: Probably at roundoff error limit. (Stopping)
Setting wave functions to eigenvectors of Hamiltonian

# Ionic positions in lattice coordinates:
ion W   0.083334439986111   0.166665542472221   0.500000000000000 1
ion W   0.333334439986111   0.166665542472221   0.500000000000000 1
ion W   0.583334439986111   0.166665542472221   0.500000000000000 1
ion W   0.833334439986111   0.166665542472221   0.500000000000000 1
ion W   0.083334439986111   0.416665542472221   0.500000000000000 1
ion W   0.333334439986111   0.416665542472221   0.500000000000000 1
ion W   0.583334439986111   0.416665542472221   0.500000000000000 1
ion W   0.833334439986111   0.416665542472221   0.500000000000000 1
ion W   0.083334439986111   0.666665542472221   0.500000000000000 1
ion W   0.333334439986111   0.666665542472221   0.500000000000000 1
ion W   0.583334439986111   0.666665542472221   0.500000000000000 1
ion W   0.833334439986111   0.666665542472221   0.500000000000000 1
ion W   0.083334439986111   0.916665542472221   0.500000000000000 1
ion W   0.333334439986111   0.916665542472221   0.500000000000000 1
ion W   0.583334439986111   0.916665542472221   0.500000000000000 1
ion W   0.833334439986111   0.916665542472221   0.500000000000000 1
ion Se   0.166667773319445   0.083332209138888   0.406826741396760 1
ion Se   0.166667773319445   0.083332209138888   0.593173258603240 1
ion Se   0.416667773319445   0.083332209138888   0.406826741396760 1
ion Se   0.416667773319445   0.083332209138888   0.593173258603240 1
ion Se   0.666667773319445   0.083332209138888   0.406826741396760 1
ion Se   0.666667773319445   0.083332209138888   0.593173258603240 1
ion Se   0.916667773319445   0.083332209138888   0.406826741396760 1
ion Se   0.916667773319445   0.083332209138888   0.593173258603240 1
ion Se   0.166667773319445   0.333332209138888   0.406826741396760 1
ion Se   0.166667773319445   0.333332209138888   0.593173258603240 1
ion Se   0.416667773319445   0.333332209138888   0.406826741396760 1
ion Se   0.416667773319445   0.333332209138888   0.593173258603240 1
ion Se   0.666667773319445   0.333332209138888   0.406826741396760 1
ion Se   0.666667773319445   0.333332209138888   0.593173258603240 1
ion Se   0.916667773319445   0.333332209138888   0.406826741396760 1
ion Se   0.916667773319445   0.333332209138888   0.593173258603240 1
ion Se   0.166667773319445   0.583332209138888   0.406826741396760 1
ion Se   0.166667773319445   0.583332209138888   0.593173258603240 1
ion Se   0.416667773319445   0.583332209138888   0.406826741396760 1
ion Se   0.416667773319445   0.583332209138888   0.593173258603240 1
ion Se   0.666667773319445   0.583332209138888   0.406826741396760 1
ion Se   0.666667773319445   0.583332209138888   0.593173258603240 1
ion Se   0.916667773319445   0.583332209138888   0.406826741396760 1
ion Se   0.916667773319445   0.583332209138888   0.593173258603240 1
ion Se   0.166667773319445   0.833332209138888   0.406826741396760 1
ion Se   0.166667773319445   0.833332209138888   0.593173258603240 1
ion Se   0.416667773319445   0.833332209138888   0.406826741396760 1
ion Se   0.416667773319445   0.833332209138888   0.593173258603240 1
ion Se   0.666667773319445   0.833332209138888   0.406826741396760 1
ion Se   0.666667773319445   0.833332209138888   0.593173258603240 1
ion Se   0.916667773319445   0.833332209138888   0.406826741396760 1
ion Se   0.916667773319445   0.833332209138888   0.593173258603240 1


# Forces in Lattice coordinates:
force W  -0.000000000000000   0.000000000000000   0.000000000000000 1
force W   0.000000000000000   0.000000000000000   0.000000000000000 1
force W   0.000000000000000   0.000000000000000   0.000000000000000 1
force W  -0.000000000000000   0.000000000000000  -0.000000000000000 1
force W  -0.000000000000000   0.000000000000000  -0.000000000000000 1
force W  -0.000000000000000   0.000000000000000  -0.000000000000000 1
force W   0.000000000000000  -0.000000000000000   0.000000000000000 1
force W  -0.000000000000000   0.000000000000000   0.000000000000000 1
force W   0.000000000000000   0.000000000000000   0.000000000000000 1
force W  -0.000000000000000   0.000000000000000  -0.000000000000000 1
force W   0.000000000000000  -0.000000000000000  -0.000000000000000 1
force W   0.000000000000000   0.000000000000000   0.000000000000000 1
force W   0.000000000000000   0.000000000000000  -0.000000000000000 1
force W   0.000000000000000   0.000000000000000   0.000000000000000 1
force W  -0.000000000000000   0.000000000000000   0.000000000000000 1
force W   0.000000000000000   0.000000000000000  -0.000000000000000 1
force Se   0.000000000000000  -0.000000000000000  -0.004919485890844 1
force Se  -0.000000000000000   0.000000000000000   0.004919485891185 1
force Se   0.000000000000000  -0.000000000000000  -0.004919485890958 1
force Se   0.000000000000000   0.000000000000000   0.004919485890958 1
force Se   0.000000000000000   0.000000000000000  -0.004919485890957 1
force Se  -0.000000000000000  -0.000000000000000   0.004919485890957 1
force Se   0.000000000000000  -0.000000000000000  -0.004919485890844 1
force Se  -0.000000000000000  -0.000000000000000   0.004919485890957 1
force Se  -0.000000000000000   0.000000000000000  -0.004919485890843 1
force Se  -0.000000000000000  -0.000000000000000   0.004919485890957 1
force Se   0.000000000000000   0.000000000000000  -0.004919485890958 1
force Se   0.000000000000000  -0.000000000000000   0.004919485891071 1
force Se   0.000000000000000   0.000000000000000  -0.004919485890958 1
force Se  -0.000000000000000  -0.000000000000000   0.004919485890730 1
force Se  -0.000000000000000   0.000000000000000  -0.004919485890955 1
force Se   0.000000000000000  -0.000000000000000   0.004919485890730 1
force Se  -0.000000000000000   0.000000000000000  -0.004919485891183 1
force Se  -0.000000000000000  -0.000000000000000   0.004919485890958 1
force Se  -0.000000000000000  -0.000000000000000  -0.004919485890731 1
force Se   0.000000000000000  -0.000000000000000   0.004919485891068 1
force Se   0.000000000000000   0.000000000000000  -0.004919485890844 1
force Se   0.000000000000000  -0.000000000000000   0.004919485890957 1
force Se  -0.000000000000000   0.000000000000000  -0.004919485891071 1
force Se   0.000000000000000  -0.000000000000000   0.004919485891071 1
force Se  -0.000000000000000  -0.000000000000000  -0.004919485890730 1
force Se   0.000000000000000  -0.000000000000000   0.004919485891071 1
force Se   0.000000000000000  -0.000000000000000  -0.004919485890957 1
force Se  -0.000000000000000  -0.000000000000000   0.004919485890844 1
force Se  -0.000000000000000  -0.000000000000000  -0.004919485890958 1
force Se  -0.000000000000000  -0.000000000000000   0.004919485890841 1
force Se  -0.000000000000000  -0.000000000000000  -0.004919485890958 1
force Se   0.000000000000000  -0.000000000000000   0.004919485890958 1

# Energy components:
   A_diel =       -0.0458065304245917
   Eewald =     7933.7487903040891979
       EH =     9088.8086621580896463
     Eloc =   -18509.5402652470729663
      Enl =     -154.7964024348309522
      Exc =     -805.8052123228077335
 Exc_core =      564.8999296271249477
       KE =      475.8724005956616452
  MuShift =       -0.0056032069750538
-------------------------------------
     Etot =    -1406.8635070571460801
       TS =        0.0111650452669456
-------------------------------------
        F =    -1406.8746721024131148

IonicMinimize: Iter:   2  F: -1406.874672102413115  |grad|_K:  6.763e-05  alpha:  1.000e+00  linmin: -1.000e+00  t[s]:   6042.78
IonicMinimize: Converged (|grad|_K<1.000000e-04).

#--- Lowdin population analysis ---
# oxidation-state W -0.708 -0.708 -0.708 -0.708 -0.708 -0.708 -0.708 -0.708 -0.708 -0.708 -0.708 -0.708 -0.708 -0.708 -0.708 -0.708
# magnetic-moments W +0.000 +0.000 +0.000 +0.000 +0.000 +0.000 +0.000 +0.000 +0.000 +0.000 +0.000 +0.000 +0.000 +0.000 +0.000 +0.000
# oxidation-state Se +0.389 +0.389 +0.389 +0.389 +0.389 +0.389 +0.389 +0.389 +0.389 +0.389 +0.389 +0.389 +0.389 +0.389 +0.389 +0.389 +0.389 +0.389 +0.389 +0.389 +0.389 +0.389 +0.389 +0.389 +0.389 +0.389 +0.389 +0.389 +0.389 +0.389 +0.389 +0.389
# magnetic-moments Se -0.000 -0.000 -0.000 -0.000 -0.000 -0.000 -0.000 -0.000 -0.000 -0.000 -0.000 -0.000 -0.000 -0.000 -0.000 -0.000 -0.000 -0.000 -0.000 -0.000 -0.000 -0.000 -0.000 -0.000 -0.000 -0.000 -0.000 -0.000 -0.000 -0.000 -0.000 -0.000


Dumping 'NbTe2.fillings' ... done
Dumping 'NbTe2.wfns' ... done
Dumping 'NbTe2.fluidState' ... done
Dumping 'NbTe2.ionpos' ... done
Dumping 'NbTe2.eigenvals' ... done
End date and time: Fri Feb 12 03:50:53 2021  (Duration: 0-1:40:50.00)
Done!
