
*************** JDFTx 1.5.0  ***************

Start date and time: Wed Jul  8 08:31:46 2020
Executable jdftx_gpu with command-line: -i Charged.in -o Charged.out
Running on hosts (process indices):  amax (0)
Divided in process groups (process indices):  0 (0)
gpuInit: Found compatible cuda device 0 'Tesla K80'
gpuInit: Selected device 0
Resource initialization completed at t[s]:     13.03
Run totals: 1 processes, 24 threads, 1 GPUs


Input parsed successfully to the following command list (including defaults):

basis kpoint-dependent
cache-projectors no
coords-type Lattice
core-overlap-check none
coulomb-interaction Slab 001
coulomb-truncation-embed 0 0 0.5
davidson-band-ratio 1.1
dump End State
dump-name NbTe2.$VAR
elec-cutoff 20 100
elec-eigen-algo Davidson
elec-ex-corr gga-PBE
elec-smearing Gauss 0.0073499
electronic-minimize  \
	dirUpdateScheme      FletcherReeves \
	linminMethod         DirUpdateRecommended \
	nIterations          100 \
	history              15 \
	knormThreshold       0 \
	energyDiffThreshold  1e-08 \
	nEnergyDiff          2 \
	alphaTstart          1 \
	alphaTmin            1e-10 \
	updateTestStepSize   yes \
	alphaTreduceFactor   0.1 \
	alphaTincreaseFactor 3 \
	nAlphaAdjustMax      3 \
	wolfeEnergy          0.0001 \
	wolfeGradient        0.9 \
	fdTest               no
electronic-scf  \
	nIterations	500 \
	energyDiffThreshold	1e-08 \
	residualThreshold	1e-07 \
	mixFraction	0.5 \
	qMetric	0.8 \
	history	10 \
	nEigSteps	2 \
	eigDiffThreshold	1e-08 \
	mixedVariable	Density \
	qKerker	0.8 \
	qKappa	-1 \
	verbose	no \
	mixFractionMag	1.5
exchange-regularization WignerSeitzTruncated
fluid LinearPCM 298.000000 1.013250
fluid-anion F- 1 MeanFieldLJ \
	epsBulk 1 \
	pMol 0 \
	epsInf 1 \
	Pvap 0 \
	sigmaBulk 0 \
	Rvdw 2.24877 \
	Res 0 \
	tauNuc 343133
fluid-cation Na+ 1 MeanFieldLJ \
	epsBulk 1 \
	pMol 0 \
	epsInf 1 \
	Pvap 0 \
	sigmaBulk 0 \
	Rvdw 2.19208 \
	Res 0 \
	tauNuc 343133
fluid-ex-corr lda-TF lda-PZ
fluid-gummel-loop 10 1.000000e-05
fluid-minimize  \
	dirUpdateScheme      PolakRibiere \
	linminMethod         DirUpdateRecommended \
	nIterations          400 \
	history              15 \
	knormThreshold       1e-11 \
	energyDiffThreshold  0 \
	nEnergyDiff          2 \
	alphaTstart          1 \
	alphaTmin            1e-10 \
	updateTestStepSize   yes \
	alphaTreduceFactor   0.1 \
	alphaTincreaseFactor 3 \
	nAlphaAdjustMax      6 \
	wolfeEnergy          0.0001 \
	wolfeGradient        0.9 \
	fdTest               no
fluid-solvent H2O 55.338 ScalarEOS \
	epsBulk 78.4 \
	pMol 0.92466 \
	epsInf 1.77 \
	Pvap 1.06736e-10 \
	sigmaBulk 4.62e-05 \
	Rvdw 2.61727 \
	Res 1.42 \
	tauNuc 343133 \
	poleEl 15 7 1
forces-output-coords Positions
initial-state NbTe2.$VAR
ion Bi   0.000000000000000   0.950811199995299   0.599917231134753 0
ion Bi   0.500000000000000   0.943833559572336   0.600243379435410 0
ion Bi   0.000000000000000   0.066477825121473   0.401478651613225 0
ion Bi   0.500000000000000   0.064468799784486   0.403161647818031 0
ion Bi   0.249544355230703   0.800606788784997   0.358841476677280 0
ion Bi   0.750455644769297   0.800606788784997   0.358841476677280 0
ion Bi   0.254676563479866   0.341889323693043   0.438409804079917 0
ion Bi   0.745323436520134   0.341889323693043   0.438409804079917 0
ion Bi   0.000000000000000   0.177016485012287   0.572173618090924 0
ion Bi   0.500000000000000   0.166430721271229   0.571531665515973 0
ion Bi   0.000000000000000   0.624603169343086   0.489128516403632 0
ion Bi   0.500000000000000   0.620494791039581   0.488535956771267 0
ion Bi   0.000000000000000   0.842879441535665   0.430695970810603 0
ion Bi   0.500000000000000   0.840569850680421   0.430767287999651 0
ion Bi   0.000000000000000   0.526860322730652   0.312537384379226 0
ion Bi   0.500000000000000   0.529626043288920   0.312269249029064 0
ion Bi   0.247590593608177   0.119798116961669   0.471835097725017 0
ion Bi   0.752409406391824   0.119798116961669   0.471835097725017 0
ion Bi   0.250648463032024   0.669271054733876   0.559214377099631 0
ion Bi   0.749351536967975   0.669271054733876   0.559214377099631 0
ion Bi   0.000000000000000   0.392860710409710   0.507929457609111 0
ion Bi   0.500000000000000   0.391259229335446   0.509500808937700 0
ion Bi   0.249000344553671   0.893882360755171   0.530782890907433 0
ion Bi   0.750999655446330   0.893882360755171   0.530782890907433 0
ion Bi   0.258952685828874   0.210433961542309   0.646712082104776 0
ion Bi   0.741047314171126   0.210433961542309   0.646712082104776 0
ion Bi   0.225185405938936   0.423476925560564   0.607672134099761 0
ion Bi   0.774814594061064   0.423476925560564   0.607672134099761 0
ion Bi   0.250309752466177   0.577126659486277   0.384139919952052 0
ion Bi   0.749690247533823   0.577126659486277   0.384139919952052 0
ion Bi   0.000000000000000   0.482812002099492   0.684954583411206 0
ion I   0.000000000000000   0.280744538029175   0.736090034554661 0
ion I   0.500000000000000   0.241712885501255   0.730149123431766 0
ion I   0.000000000000000   0.736337234528485   0.266610158421884 0
ion I   0.500000000000000   0.737756640383070   0.266611810556820 0
ion I   0.000000000000000   0.298045538063411   0.340358947720374 0
ion I   0.500000000000000   0.299689709168692   0.343107607851231 0
ion I   0.000000000000000   0.715189508198123   0.658992588014831 0
ion I   0.500000000000000   0.518948741871891   0.659201034196907 0
ion-species GBRV/$ID_pbe.uspp
ion-width Ecut
ionic-minimize  \
	dirUpdateScheme      L-BFGS \
	linminMethod         DirUpdateRecommended \
	nIterations          0 \
	history              15 \
	knormThreshold       0.0001 \
	energyDiffThreshold  1e-06 \
	nEnergyDiff          2 \
	alphaTstart          1 \
	alphaTmin            1e-10 \
	updateTestStepSize   yes \
	alphaTreduceFactor   0.1 \
	alphaTincreaseFactor 3 \
	nAlphaAdjustMax      3 \
	wolfeEnergy          0.0001 \
	wolfeGradient        0.9 \
	fdTest               no
kpoint   0.000000000000   0.000000000000   0.000000000000  1.00000000000000
kpoint-folding 4 3 1 
latt-move-scale 1 1 1
latt-scale 1 1 1 
lattice Triclinic 16.7347 25.0422 53.813 90 90 90
lattice-minimize  \
	dirUpdateScheme      L-BFGS \
	linminMethod         DirUpdateRecommended \
	nIterations          0 \
	history              15 \
	knormThreshold       0 \
	energyDiffThreshold  1e-06 \
	nEnergyDiff          2 \
	alphaTstart          1 \
	alphaTmin            1e-10 \
	updateTestStepSize   yes \
	alphaTreduceFactor   0.1 \
	alphaTincreaseFactor 3 \
	nAlphaAdjustMax      3 \
	wolfeEnergy          0.0001 \
	wolfeGradient        0.9 \
	fdTest               no
lcao-params -1 1e-06 0.0073499
pcm-variant CANDLE
spintype no-spin
subspace-rotation-factor 1 yes
symmetries automatic
symmetry-threshold 0.0001
target-mu -0.24475 no




---------- Setting up symmetries ----------

Found 8 point-group symmetries of the bravais lattice
Found 2 space-group symmetries with basis
Applied RMS atom displacement 6.3166e-16 bohrs to make symmetries exact.

---------- Initializing the Grid ----------
R = 
[    16.7347          0          0  ]
[          0    25.0422          0  ]
[          0          0     53.813  ]
unit cell volume = 22551.6
G =
[   0.375458          0          0  ]
[          0   0.250904          0  ]
[          0          0    0.11676  ]
Minimum fftbox size, Smin = [  76  116  244  ]
Chosen fftbox size, S = [  80  120  250  ]

---------- Initializing tighter grid for wavefunction operations ----------
R = 
[    16.7347          0          0  ]
[          0    25.0422          0  ]
[          0          0     53.813  ]
unit cell volume = 22551.6
G =
[   0.375458          0          0  ]
[          0   0.250904          0  ]
[          0          0    0.11676  ]
Minimum fftbox size, Smin = [  68  104  220  ]
Chosen fftbox size, S = [  70  108  224  ]

---------- Exchange Correlation functional ----------
Initalized PBE GGA exchange.
Initalized PBE GGA correlation.

---------- Setting up pseudopotentials ----------
Width of ionic core gaussian charges (only for fluid interactions / plotting) set to 0.397384

Reading pseudopotential file '/home/guoxy/vasp/jdftx-1.5.0/build/pseudopotentials/GBRV/bi_pbe.uspp':
  Title: Bi.  Created by USPP 7.3.6 on 14-9-2013
  Reference state energy: -92.204004.  15 valence electrons in orbitals:
    |520>  occupation: 10  eigenvalue: -1.293263
    |600>  occupation: 2  eigenvalue: -0.812524
    |610>  occupation: 2  eigenvalue: -0.420386
  lMax: 2  lLocal: 3  QijEcut: 5
  6 projectors sampled on a log grid with 747 points:
    l: 0  eig: -0.812524  rCut: 2.5
    l: 0  eig: 0.500000  rCut: 2.5
    l: 1  eig: -0.420386  rCut: 2.5
    l: 1  eig: 1.000000  rCut: 2.5
    l: 2  eig: -1.293263  rCut: 2.3
    l: 2  eig: -0.500000  rCut: 2.3
  Partial core density with radius 1
  Transforming core density to a uniform radial grid of dG=0.02 with 1295 points.
  Transforming local potential to a uniform radial grid of dG=0.02 with 1295 points.
  Transforming nonlocal projectors to a uniform radial grid of dG=0.02 with 432 points.
  Transforming density augmentations to a uniform radial grid of dG=0.02 with 1295 points.
  Transforming atomic orbitals to a uniform radial grid of dG=0.02 with 432 points.
  Core radius for overlap checks: 2.50 bohrs.

Reading pseudopotential file '/home/guoxy/vasp/jdftx-1.5.0/build/pseudopotentials/GBRV/i_pbe.uspp':
  Title: I.  Created by USPP 7.3.6 on 14-9-2013
  Reference state energy: -32.770235.  7 valence electrons in orbitals:
    |500>  occupation: 2  eigenvalue: -0.639712
    |510>  occupation: 5  eigenvalue: -0.260406
  lMax: 2  lLocal: 3  QijEcut: 5
  6 projectors sampled on a log grid with 725 points:
    l: 0  eig: -0.639710  rCut: 1.9
    l: 0  eig: 0.000000  rCut: 1.9
    l: 1  eig: -0.260404  rCut: 2
    l: 1  eig: 0.000000  rCut: 2
    l: 2  eig: -0.500000  rCut: 2.45
    l: 2  eig: 0.500000  rCut: 2.45
  Partial core density with radius 1.3
  Transforming core density to a uniform radial grid of dG=0.02 with 1295 points.
  Transforming local potential to a uniform radial grid of dG=0.02 with 1295 points.
  Transforming nonlocal projectors to a uniform radial grid of dG=0.02 with 432 points.
  Transforming density augmentations to a uniform radial grid of dG=0.02 with 1295 points.
  Transforming atomic orbitals to a uniform radial grid of dG=0.02 with 432 points.
  Core radius for overlap checks: 2.45 bohrs.

Initialized 2 species with 39 total atoms.

Folded 1 k-points by 4x3x1 to 12 k-points.

---------- Setting up k-points, bands, fillings ----------
Adding inversion symmetry to k-mesh for non-inversion-symmetric unit cell.
Reduced to 6 k-points under symmetry. 
Computing the number of bands and number of electrons
Reading initial fillings from file NbTe2.fillings.
nElectrons: 521.000000   nBands: 311   nStates: 6

----- Setting up reduced wavefunction bases (one per k-point) -----
average nbasis = 96340.417 , ideal nbasis = 96342.186

---------- Setting up coulomb interaction ----------
Fluid mode embedding: using embedded box, but periodic Coulomb kernel.
(Fluid response is responsible for (approximate) separation between periodic images.)
Setting up double-sized grid for truncated Coulomb potentials:
R = 
[    16.7347          0          0  ]
[          0    25.0422          0  ]
[          0          0    107.626  ]
unit cell volume = 45103.2
G =
[   0.375458          0          0  ]
[          0   0.250904          0  ]
[          0          0  0.0583798  ]
Chosen fftbox size, S = [  80  120  500  ]
Integer grid location selected as the embedding center:
   Grid: [  0  0  125  ]
   Lattice: [  0  0  0.5  ]
   Cartesian: [  0  0  26.9065  ]
Constructing Wigner-Seitz cell: 6 faces (6 quadrilaterals, 0 hexagons)
Range-separation parameter for embedded mesh potentials due to point charges: 0.585307 bohrs.

Initializing van der Waals corrections
	NOTE: vdW corrections apply only for interactions with fluid.
	Bi:  C6:  893.28 Eh-a0^6  R0: 3.555 a0 (WARNING: beyond Grimme's data set)
	 I:  C6:  546.38 Eh-a0^6  R0: 3.575 a0

---------- Setting up ewald sum ----------
Optimum gaussian width for ewald sums = 7.711434 bohr.
Real space sum over 585 unit cells with max indices [  6  4  2  ]
Reciprocal space sum over 6721 terms with max indices [  5  6  23  ]

---------- Allocating electronic variables ----------
Initializing wave functions:  reading from 'NbTe2.wfns'
----- createFluidSolver() ----- (Fluid-side solver setup)
   Initializing fluid molecule 'H2O'
     Initializing site 'O'
       Electron density: proportional to exp(-r/0.36935)*erfc((r-0.51523)/0.36823) with norm 6.826
       Charge density: gaussian nuclear width 0.478731 with net site charge 0.826
       Polarizability: cuspless exponential with width 0.32 and norm 3.73
       Hard sphere radius: 2.57003 bohrs
       Positions in reference frame:
         [ +0.000000 +0.000000 +0.000000 ]
     Initializing site 'H'
       Electron density: proportional to exp(-r/0.34641)*erfc((r-0)/0.390882) with norm 0.587
       Charge density: gaussian nuclear width 0.377945 with net site charge -0.413
       Polarizability: cuspless exponential with width 0.39 and norm 3.3
       Positions in reference frame:
         [ +0.000000 -1.441945 +1.122523 ]
         [ +0.000000 +1.441945 +1.122523 ]
     Net charge: 0   dipole magnitude: 0.927204
     Initializing spherical shell mfKernel with radius 2.61727 Bohr
     deltaS corrections:
       site 'O': -7.54299
       site 'H': -6.83917
   Initializing fluid molecule 'Na+'
     Initializing site 'Na'
       Electron density: proportional to exp(-r/0.19682)*erfc((r-0.71491)/0.41314) with norm 8.1383
       Charge density: gaussian nuclear width 0.365347 with net site charge -1
       Hard sphere radius: 1.86327 bohrs
       Positions in reference frame:
         [ +0.000000 +0.000000 +0.000000 ]
     Net charge: -1   dipole magnitude: 0
     Initializing gaussian mfKernel with width: 1.55004 Bohr
     deltaS corrections:
       site 'Na': -22.3555
   Initializing fluid molecule 'F-'
     Initializing site 'F'
       Electron density: proportional to exp(-r/0.38886)*erfc((r-0)/0.438782) with norm 8
       Charge density: gaussian nuclear width 0.374796 with net site charge 1
       Hard sphere radius: 2.39995 bohrs
       Positions in reference frame:
         [ +0.000000 +0.000000 +0.000000 ]
     Net charge: 1   dipole magnitude: 0
     Initializing gaussian mfKernel with width: 1.59012 Bohr
     deltaS corrections:
       site 'F': -9.04335

Correction to mu due to finite nuclear width = -0.0114612
   Cavity determined by nc: 0.00142 and sigma: 0.707107
   Nonlocal vdW cavity from gaussian model electron density with norm = 8 and sigma = 0.993594 bohr
   Charge asymmetry in cavity with sensitivity pCavity = 36.5 e-bohr/Eh
   Electrostatic cavity expanded by eta = 1.46 bohrs
   Weighted density cavitation model constrained by Nbulk: 0.0049383 bohr^-3, Pvap: 3.14029 kPa, Rvdw: 2.61727 bohr and sigmaBulk: 4.62e-05 Eh/bohr^2 at T: 298 K.
   Weighted density dispersion model using vdW pair potentials with single solvent site with sqrtC6eff: 0.77 SI.
Reading fluid state from 'NbTe2.fluidState'


---- Citations for features of the code used in this run ----

   Software package:
      R. Sundararaman, K. Letchworth-Weaver, K.A. Schwarz, D. Gunceler, Y. Ozhabes and T.A. Arias, 'JDFTx: software for joint density-functional theory', SoftwareX 6, 278 (2017)

   gga-PBE exchange-correlation functional:
      J.P. Perdew, K. Burke and M. Ernzerhof, Phys. Rev. Lett. 77, 3865 (1996)

   Pseudopotentials:
      KF Garrity, JW Bennett, KM Rabe and D Vanderbilt, Comput. Mater. Sci. 81, 446 (2014)

   Truncated Coulomb potentials:
      R. Sundararaman and T.A. Arias, Phys. Rev. B 87, 165122 (2013)

   Van der Waals correction pair-potentials:
      S. Grimme, J. Comput. Chem. 27, 1787 (2006)

   Charge-asymmetric nonlocally-determined local-electric (CANDLE) solvation model:
      R. Sundararaman and W.A. Goddard III, J. Chem. Phys. 142, 064107 (2015)

   Grand-canonical (fixed-potential) DFT:
      R. Sundararaman, W. A. Goddard III and T. A. Arias, J. Chem. Phys. 146, 114104 (2017)

This list may not be complete. Please suggest additional citations or
report any other bugs at https://github.com/shankar1729/jdftx/issues

Initialization completed successfully at t[s]:     55.40

Shifting auxilliary hamiltonian by -0.073592 to set nElectrons=521.000000
	Linear fluid (dielectric constant: 78.4, screening length: 5.74355 Bohr) occupying 0.718414 of unit cell:	Completed after 0 iterations at t[s]:     66.28

-------- Electronic minimization -----------
Will mix electronic density at each iteration.
	FillingsUpdate:  mu: -0.244750400  nElectrons: 521.000000
	Linear fluid (dielectric constant: 78.4, screening length: 5.74355 Bohr) occupying 0.718414 of unit cell:	Completed after 0 iterations at t[s]:     78.26
	FillingsUpdate:  mu: -0.244750400  nElectrons: 454.107731
	Linear fluid (dielectric constant: 78.4, screening length: 5.74355 Bohr) occupying 0.729965 of unit cell:	Completed after 35 iterations at t[s]:    157.28
SCF: Cycle:  0   G: -2111.329141447049096   dG: +8.230e+01   |Residual|: 9.078e-01   |deigs|: 4.618e-07  t[s]:    159.42
	Linear fluid (dielectric constant: 78.4, screening length: 5.74355 Bohr) occupying 0.699341 of unit cell:	Completed after 31 iterations at t[s]:    163.58
	FillingsUpdate:  mu: -0.244750400  nElectrons: 570.647938
	Linear fluid (dielectric constant: 78.4, screening length: 5.74355 Bohr) occupying 0.770905 of unit cell:	Completed after 33 iterations at t[s]:    275.69
SCF: Cycle:  1   G: -2134.896755192437467   dG: -2.357e+01   |Residual|: 8.471e-01   |deigs|: 1.764e-01  t[s]:    277.70
	Linear fluid (dielectric constant: 78.4, screening length: 5.74355 Bohr) occupying 0.698998 of unit cell:	Completed after 29 iterations at t[s]:    281.49
	FillingsUpdate:  mu: -0.244750400  nElectrons: 521.686090
	Linear fluid (dielectric constant: 78.4, screening length: 5.74355 Bohr) occupying 0.726169 of unit cell:	Completed after 28 iterations at t[s]:    390.97
SCF: Cycle:  2   G: -2193.338472574757816   dG: -5.844e+01   |Residual|: 2.355e-01   |deigs|: 9.950e-02  t[s]:    392.73
	Linear fluid (dielectric constant: 78.4, screening length: 5.74355 Bohr) occupying 0.697749 of unit cell:	Completed after 23 iterations at t[s]:    395.87
	FillingsUpdate:  mu: -0.244750400  nElectrons: 520.234625
	Linear fluid (dielectric constant: 78.4, screening length: 5.74355 Bohr) occupying 0.723457 of unit cell:	Completed after 26 iterations at t[s]:    505.26
SCF: Cycle:  3   G: -2193.615088962324080   dG: -2.766e-01   |Residual|: 1.348e-01   |deigs|: 5.839e-03  t[s]:    506.98
	Linear fluid (dielectric constant: 78.4, screening length: 5.74355 Bohr) occupying 0.695638 of unit cell:	Completed after 21 iterations at t[s]:    509.84
	FillingsUpdate:  mu: -0.244750400  nElectrons: 514.818791
	Linear fluid (dielectric constant: 78.4, screening length: 5.74355 Bohr) occupying 0.723311 of unit cell:	Completed after 26 iterations at t[s]:    619.57
SCF: Cycle:  4   G: -2193.419066888745874   dG: +1.960e-01   |Residual|: 6.882e-02   |deigs|: 1.017e-02  t[s]:    621.48
	Linear fluid (dielectric constant: 78.4, screening length: 5.74355 Bohr) occupying 0.694175 of unit cell:	Completed after 22 iterations at t[s]:    624.59
	FillingsUpdate:  mu: -0.244750400  nElectrons: 514.813276
	Linear fluid (dielectric constant: 78.4, screening length: 5.74355 Bohr) occupying 0.723344 of unit cell:	Completed after 25 iterations at t[s]:    734.31
SCF: Cycle:  5   G: -2193.412831691623524   dG: +6.235e-03   |Residual|: 6.080e-02   |deigs|: 4.730e-04  t[s]:    736.14
	Linear fluid (dielectric constant: 78.4, screening length: 5.74355 Bohr) occupying 0.690969 of unit cell:	Completed after 21 iterations at t[s]:    739.12
	FillingsUpdate:  mu: -0.244750400  nElectrons: 514.237015
	Linear fluid (dielectric constant: 78.4, screening length: 5.74355 Bohr) occupying 0.723643 of unit cell:	Completed after 26 iterations at t[s]:    848.09
SCF: Cycle:  6   G: -2193.304553642370593   dG: +1.083e-01   |Residual|: 6.836e-02   |deigs|: 1.004e-03  t[s]:    849.95
	Linear fluid (dielectric constant: 78.4, screening length: 5.74355 Bohr) occupying 0.688201 of unit cell:	Completed after 21 iterations at t[s]:    852.87
	FillingsUpdate:  mu: -0.244750400  nElectrons: 514.172645
	Linear fluid (dielectric constant: 78.4, screening length: 5.74355 Bohr) occupying 0.724026 of unit cell:	Completed after 26 iterations at t[s]:    963.37
SCF: Cycle:  7   G: -2193.311727763507861   dG: -7.174e-03   |Residual|: 6.911e-02   |deigs|: 1.381e-04  t[s]:    965.10
	Linear fluid (dielectric constant: 78.4, screening length: 5.74355 Bohr) occupying 0.686663 of unit cell:	Completed after 21 iterations at t[s]:    967.93
	FillingsUpdate:  mu: -0.244750400  nElectrons: 514.562334
	Linear fluid (dielectric constant: 78.4, screening length: 5.74355 Bohr) occupying 0.724431 of unit cell:	Completed after 26 iterations at t[s]:   1078.18
SCF: Cycle:  8   G: -2193.415037036997546   dG: -1.033e-01   |Residual|: 5.969e-02   |deigs|: 6.141e-04  t[s]:   1079.91
	Linear fluid (dielectric constant: 78.4, screening length: 5.74355 Bohr) occupying 0.686433 of unit cell:	Completed after 20 iterations at t[s]:   1082.82
	FillingsUpdate:  mu: -0.244750400  nElectrons: 514.697233
	Linear fluid (dielectric constant: 78.4, screening length: 5.74355 Bohr) occupying 0.725242 of unit cell:	Completed after 26 iterations at t[s]:   1191.25
SCF: Cycle:  9   G: -2193.486770699883436   dG: -7.173e-02   |Residual|: 4.945e-02   |deigs|: 4.059e-04  t[s]:   1192.94
	Linear fluid (dielectric constant: 78.4, screening length: 5.74355 Bohr) occupying 0.691138 of unit cell:	Completed after 22 iterations at t[s]:   1196.02
	FillingsUpdate:  mu: -0.244750400  nElectrons: 515.819136
	Linear fluid (dielectric constant: 78.4, screening length: 5.74355 Bohr) occupying 0.725904 of unit cell:	Completed after 23 iterations at t[s]:   1305.37
SCF: Cycle: 10   G: -2193.682502659746206   dG: -1.957e-01   |Residual|: 3.162e-02   |deigs|: 2.213e-03  t[s]:   1307.16
	Linear fluid (dielectric constant: 78.4, screening length: 5.74355 Bohr) occupying 0.704897 of unit cell:	Completed after 23 iterations at t[s]:   1310.39
	FillingsUpdate:  mu: -0.244750400  nElectrons: 515.024353
	Linear fluid (dielectric constant: 78.4, screening length: 5.74355 Bohr) occupying 0.726877 of unit cell:	Completed after 26 iterations at t[s]:   1421.87
SCF: Cycle: 11   G: -2193.619597953165339   dG: +6.290e-02   |Residual|: 3.241e-02   |deigs|: 1.236e-03  t[s]:   1423.76
	Linear fluid (dielectric constant: 78.4, screening length: 5.74355 Bohr) occupying 0.714229 of unit cell:	Completed after 25 iterations at t[s]:   1427.15
	FillingsUpdate:  mu: -0.244750400  nElectrons: 518.011851
	Linear fluid (dielectric constant: 78.4, screening length: 5.74355 Bohr) occupying 0.727194 of unit cell:	Completed after 23 iterations at t[s]:   1536.52
SCF: Cycle: 12   G: -2193.732711233153168   dG: -1.131e-01   |Residual|: 2.046e-02   |deigs|: 5.657e-03  t[s]:   1538.36
	Linear fluid (dielectric constant: 78.4, screening length: 5.74355 Bohr) occupying 0.718124 of unit cell:	Completed after 23 iterations at t[s]:   1541.50
	FillingsUpdate:  mu: -0.244750400  nElectrons: 519.791425
	Linear fluid (dielectric constant: 78.4, screening length: 5.74355 Bohr) occupying 0.726908 of unit cell:	Completed after 26 iterations at t[s]:   1651.40
SCF: Cycle: 13   G: -2193.529610650414270   dG: +2.031e-01   |Residual|: 4.069e-02   |deigs|: 4.112e-03  t[s]:   1653.29
	Linear fluid (dielectric constant: 78.4, screening length: 5.74355 Bohr) occupying 0.719739 of unit cell:	Completed after 25 iterations at t[s]:   1656.68
	FillingsUpdate:  mu: -0.244750400  nElectrons: 518.582681
	Linear fluid (dielectric constant: 78.4, screening length: 5.74355 Bohr) occupying 0.726790 of unit cell:	Completed after 23 iterations at t[s]:   1764.97
SCF: Cycle: 14   G: -2193.699180667876590   dG: -1.696e-01   |Residual|: 2.150e-02   |deigs|: 3.077e-03  t[s]:   1766.66
	Linear fluid (dielectric constant: 78.4, screening length: 5.74355 Bohr) occupying 0.721183 of unit cell:	Completed after 23 iterations at t[s]:   1770.01
	FillingsUpdate:  mu: -0.244750400  nElectrons: 517.549033
	Linear fluid (dielectric constant: 78.4, screening length: 5.74355 Bohr) occupying 0.726445 of unit cell:	Completed after 19 iterations at t[s]:   1879.94
SCF: Cycle: 15   G: -2193.761352905637978   dG: -6.217e-02   |Residual|: 6.831e-03   |deigs|: 2.330e-03  t[s]:   1881.66
	Linear fluid (dielectric constant: 78.4, screening length: 5.74355 Bohr) occupying 0.724388 of unit cell:	Completed after 18 iterations at t[s]:   1884.31
	FillingsUpdate:  mu: -0.244750400  nElectrons: 515.119709
	Linear fluid (dielectric constant: 78.4, screening length: 5.74355 Bohr) occupying 0.726445 of unit cell:	Completed after 24 iterations at t[s]:   1994.63
SCF: Cycle: 16   G: -2193.627248602147574   dG: +1.341e-01   |Residual|: 3.277e-02   |deigs|: 4.387e-03  t[s]:   1996.24
	Linear fluid (dielectric constant: 78.4, screening length: 5.74355 Bohr) occupying 0.726265 of unit cell:	Completed after 25 iterations at t[s]:   1999.59
	FillingsUpdate:  mu: -0.244750400  nElectrons: 515.956110
	Linear fluid (dielectric constant: 78.4, screening length: 5.74355 Bohr) occupying 0.726698 of unit cell:	Completed after 23 iterations at t[s]:   2107.07
SCF: Cycle: 17   G: -2193.722173888912494   dG: -9.493e-02   |Residual|: 1.867e-02   |deigs|: 1.560e-03  t[s]:   2108.89
	Linear fluid (dielectric constant: 78.4, screening length: 5.74355 Bohr) occupying 0.726542 of unit cell:	Completed after 23 iterations at t[s]:   2112.11
	FillingsUpdate:  mu: -0.244750400  nElectrons: 516.756170
	Linear fluid (dielectric constant: 78.4, screening length: 5.74355 Bohr) occupying 0.726722 of unit cell:	Completed after 18 iterations at t[s]:   2246.45
SCF: Cycle: 18   G: -2193.761096098827238   dG: -3.892e-02   |Residual|: 6.361e-03   |deigs|: 1.525e-03  t[s]:   2248.42
	Linear fluid (dielectric constant: 78.4, screening length: 5.74355 Bohr) occupying 0.726971 of unit cell:	Completed after 18 iterations at t[s]:   2251.24
	FillingsUpdate:  mu: -0.244750400  nElectrons: 517.024377
	Linear fluid (dielectric constant: 78.4, screening length: 5.74355 Bohr) occupying 0.726772 of unit cell:	Completed after 14 iterations at t[s]:   2362.03
SCF: Cycle: 19   G: -2193.764449489260642   dG: -3.353e-03   |Residual|: 3.053e-03   |deigs|: 5.439e-04  t[s]:   2364.11
	Linear fluid (dielectric constant: 78.4, screening length: 5.74355 Bohr) occupying 0.726533 of unit cell:	Completed after 13 iterations at t[s]:   2366.35
	FillingsUpdate:  mu: -0.244750400  nElectrons: 517.082201
	Linear fluid (dielectric constant: 78.4, screening length: 5.74355 Bohr) occupying 0.726720 of unit cell:	Completed after 11 iterations at t[s]:   2475.59
SCF: Cycle: 20   G: -2193.764521533431889   dG: -7.204e-05   |Residual|: 2.090e-03   |deigs|: 1.109e-04  t[s]:   2477.28
	Linear fluid (dielectric constant: 78.4, screening length: 5.74355 Bohr) occupying 0.726768 of unit cell:	Completed after 10 iterations at t[s]:   2479.15
	FillingsUpdate:  mu: -0.244750400  nElectrons: 517.192838
	Linear fluid (dielectric constant: 78.4, screening length: 5.74355 Bohr) occupying 0.726760 of unit cell:	Completed after 16 iterations at t[s]:   2589.50
SCF: Cycle: 21   G: -2193.764104745428085   dG: +4.168e-04   |Residual|: 2.378e-03   |deigs|: 2.249e-04  t[s]:   2591.20
	Linear fluid (dielectric constant: 78.4, screening length: 5.74355 Bohr) occupying 0.726715 of unit cell:	Completed after 16 iterations at t[s]:   2593.67
	FillingsUpdate:  mu: -0.244750400  nElectrons: 517.062414
	Linear fluid (dielectric constant: 78.4, screening length: 5.74355 Bohr) occupying 0.726744 of unit cell:	Completed after 13 iterations at t[s]:   2689.78
SCF: Cycle: 22   G: -2193.764513598418034   dG: -4.089e-04   |Residual|: 1.167e-03   |deigs|: 2.674e-04  t[s]:   2691.69
	Linear fluid (dielectric constant: 78.4, screening length: 5.74355 Bohr) occupying 0.726791 of unit cell:	Completed after 13 iterations at t[s]:   2693.88
	FillingsUpdate:  mu: -0.244750400  nElectrons: 517.143050
	Linear fluid (dielectric constant: 78.4, screening length: 5.74355 Bohr) occupying 0.726755 of unit cell:	Completed after 14 iterations at t[s]:   2770.60
SCF: Cycle: 23   G: -2193.764446541380494   dG: +6.706e-05   |Residual|: 1.387e-03   |deigs|: 1.536e-04  t[s]:   2772.28
	Linear fluid (dielectric constant: 78.4, screening length: 5.74355 Bohr) occupying 0.726757 of unit cell:	Completed after 14 iterations at t[s]:   2774.49
	FillingsUpdate:  mu: -0.244750400  nElectrons: 517.126697
	Linear fluid (dielectric constant: 78.4, screening length: 5.74355 Bohr) occupying 0.726735 of unit cell:	Completed after 15 iterations at t[s]:   2854.35
SCF: Cycle: 24   G: -2193.764459564139543   dG: -1.302e-05   |Residual|: 1.163e-03   |deigs|: 5.268e-05  t[s]:   2856.14
	Linear fluid (dielectric constant: 78.4, screening length: 5.74355 Bohr) occupying 0.726933 of unit cell:	Completed after 15 iterations at t[s]:   2858.73
	FillingsUpdate:  mu: -0.244750400  nElectrons: 517.157430
	Linear fluid (dielectric constant: 78.4, screening length: 5.74355 Bohr) occupying 0.726756 of unit cell:	Completed after 16 iterations at t[s]:   2936.20
SCF: Cycle: 25   G: -2193.764333954041831   dG: +1.256e-04   |Residual|: 1.352e-03   |deigs|: 6.376e-05  t[s]:   2937.93
	Linear fluid (dielectric constant: 78.4, screening length: 5.74355 Bohr) occupying 0.726992 of unit cell:	Completed after 15 iterations at t[s]:   2940.30
	FillingsUpdate:  mu: -0.244750400  nElectrons: 517.151620
	Linear fluid (dielectric constant: 78.4, screening length: 5.74355 Bohr) occupying 0.726760 of unit cell:	Completed after 15 iterations at t[s]:   3017.01
SCF: Cycle: 26   G: -2193.764382249278697   dG: -4.830e-05   |Residual|: 1.258e-03   |deigs|: 2.770e-05  t[s]:   3018.93
	Linear fluid (dielectric constant: 78.4, screening length: 5.74355 Bohr) occupying 0.726941 of unit cell:	Completed after 14 iterations at t[s]:   3021.28
	FillingsUpdate:  mu: -0.244750400  nElectrons: 517.138966
	Linear fluid (dielectric constant: 78.4, screening length: 5.74355 Bohr) occupying 0.726749 of unit cell:	Completed after 14 iterations at t[s]:   3097.94
SCF: Cycle: 27   G: -2193.764460421024978   dG: -7.817e-05   |Residual|: 9.741e-04   |deigs|: 3.625e-05  t[s]:   3099.52
	Linear fluid (dielectric constant: 78.4, screening length: 5.74355 Bohr) occupying 0.726747 of unit cell:	Completed after 14 iterations at t[s]:   3101.71
	FillingsUpdate:  mu: -0.244750400  nElectrons: 517.115074
	Linear fluid (dielectric constant: 78.4, screening length: 5.74355 Bohr) occupying 0.726720 of unit cell:	Completed after 11 iterations at t[s]:   3199.03
SCF: Cycle: 28   G: -2193.764546188392615   dG: -8.577e-05   |Residual|: 4.854e-04   |deigs|: 6.527e-05  t[s]:   3201.03
	Linear fluid (dielectric constant: 78.4, screening length: 5.74355 Bohr) occupying 0.726668 of unit cell:	Completed after 10 iterations at t[s]:   3202.98
	FillingsUpdate:  mu: -0.244750400  nElectrons: 517.105109
	Linear fluid (dielectric constant: 78.4, screening length: 5.74355 Bohr) occupying 0.726707 of unit cell:	Completed after 5 iterations at t[s]:   3279.60
SCF: Cycle: 29   G: -2193.764551838964508   dG: -5.651e-06   |Residual|: 2.962e-04   |deigs|: 2.500e-05  t[s]:   3281.44
	Linear fluid (dielectric constant: 78.4, screening length: 5.74355 Bohr) occupying 0.726689 of unit cell:	Completed after 4 iterations at t[s]:   3282.63
	FillingsUpdate:  mu: -0.244750400  nElectrons: 517.098329
	Linear fluid (dielectric constant: 78.4, screening length: 5.74355 Bohr) occupying 0.726710 of unit cell:	Completed after 10 iterations at t[s]:   3358.47
SCF: Cycle: 30   G: -2193.764547508755641   dG: +4.330e-06   |Residual|: 4.127e-04   |deigs|: 3.127e-05  t[s]:   3360.48
	Linear fluid (dielectric constant: 78.4, screening length: 5.74355 Bohr) occupying 0.726651 of unit cell:	Completed after 10 iterations at t[s]:   3362.36
	FillingsUpdate:  mu: -0.244750400  nElectrons: 517.147202
	Linear fluid (dielectric constant: 78.4, screening length: 5.74355 Bohr) occupying 0.726706 of unit cell:	Completed after 14 iterations at t[s]:   3438.66
SCF: Cycle: 31   G: -2193.764497919006772   dG: +4.959e-05   |Residual|: 6.432e-04   |deigs|: 9.823e-05  t[s]:   3440.41
	Linear fluid (dielectric constant: 78.4, screening length: 5.74355 Bohr) occupying 0.726640 of unit cell:	Completed after 13 iterations at t[s]:   3442.62
	FillingsUpdate:  mu: -0.244750400  nElectrons: 517.114413
	Linear fluid (dielectric constant: 78.4, screening length: 5.74355 Bohr) occupying 0.726702 of unit cell:	Completed after 11 iterations at t[s]:   3518.09
SCF: Cycle: 32   G: -2193.764548578947142   dG: -5.066e-05   |Residual|: 2.809e-04   |deigs|: 6.101e-05  t[s]:   3520.01
	Linear fluid (dielectric constant: 78.4, screening length: 5.74355 Bohr) occupying 0.726641 of unit cell:	Completed after 10 iterations at t[s]:   3521.92
	FillingsUpdate:  mu: -0.244750400  nElectrons: 517.109054
	Linear fluid (dielectric constant: 78.4, screening length: 5.74355 Bohr) occupying 0.726702 of unit cell:	Completed after 5 iterations at t[s]:   3596.63
SCF: Cycle: 33   G: -2193.764553256361978   dG: -4.677e-06   |Residual|: 1.649e-04   |deigs|: 1.680e-05  t[s]:   3598.52
	Linear fluid (dielectric constant: 78.4, screening length: 5.74355 Bohr) occupying 0.726680 of unit cell:	Completed after 4 iterations at t[s]:   3599.72
	FillingsUpdate:  mu: -0.244750400  nElectrons: 517.096027
	Linear fluid (dielectric constant: 78.4, screening length: 5.74355 Bohr) occupying 0.726706 of unit cell:	Completed after 11 iterations at t[s]:   3675.52
SCF: Cycle: 34   G: -2193.764544599106102   dG: +8.657e-06   |Residual|: 3.570e-04   |deigs|: 3.607e-05  t[s]:   3677.49
	Linear fluid (dielectric constant: 78.4, screening length: 5.74355 Bohr) occupying 0.726667 of unit cell:	Completed after 11 iterations at t[s]:   3679.54
	FillingsUpdate:  mu: -0.244750400  nElectrons: 517.148452
	Linear fluid (dielectric constant: 78.4, screening length: 5.74355 Bohr) occupying 0.726708 of unit cell:	Completed after 14 iterations at t[s]:   3758.06
SCF: Cycle: 35   G: -2193.764497119349016   dG: +4.748e-05   |Residual|: 6.647e-04   |deigs|: 1.068e-04  t[s]:   3759.98
	Linear fluid (dielectric constant: 78.4, screening length: 5.74355 Bohr) occupying 0.726677 of unit cell:	Completed after 13 iterations at t[s]:   3762.31
	FillingsUpdate:  mu: -0.244750400  nElectrons: 517.132091
	Linear fluid (dielectric constant: 78.4, screening length: 5.74355 Bohr) occupying 0.726707 of unit cell:	Completed after 12 iterations at t[s]:   3840.44
SCF: Cycle: 36   G: -2193.764527382026245   dG: -3.026e-05   |Residual|: 4.437e-04   |deigs|: 3.077e-05  t[s]:   3842.25
	Linear fluid (dielectric constant: 78.4, screening length: 5.74355 Bohr) occupying 0.726680 of unit cell:	Completed after 12 iterations at t[s]:   3844.32
	FillingsUpdate:  mu: -0.244750400  nElectrons: 517.125955
	Linear fluid (dielectric constant: 78.4, screening length: 5.74355 Bohr) occupying 0.726708 of unit cell:	Completed after 12 iterations at t[s]:   3918.50
SCF: Cycle: 37   G: -2193.764536934042098   dG: -9.552e-06   |Residual|: 3.549e-04   |deigs|: 1.213e-05  t[s]:   3920.46
	Linear fluid (dielectric constant: 78.4, screening length: 5.74355 Bohr) occupying 0.726689 of unit cell:	Completed after 11 iterations at t[s]:   3922.46
	FillingsUpdate:  mu: -0.244750400  nElectrons: 517.130378
	Linear fluid (dielectric constant: 78.4, screening length: 5.74355 Bohr) occupying 0.726709 of unit cell:	Completed after 12 iterations at t[s]:   3997.83
SCF: Cycle: 38   G: -2193.764531954371250   dG: +4.980e-06   |Residual|: 4.431e-04   |deigs|: 8.093e-06  t[s]:   3999.54
	Linear fluid (dielectric constant: 78.4, screening length: 5.74355 Bohr) occupying 0.726694 of unit cell:	Completed after 12 iterations at t[s]:   4001.50
	FillingsUpdate:  mu: -0.244750400  nElectrons: 517.131581
	Linear fluid (dielectric constant: 78.4, screening length: 5.74355 Bohr) occupying 0.726710 of unit cell:	Completed after 12 iterations at t[s]:   4078.69
SCF: Cycle: 39   G: -2193.764534993412781   dG: -3.039e-06   |Residual|: 5.435e-04   |deigs|: 9.342e-06  t[s]:   4080.40
	Linear fluid (dielectric constant: 78.4, screening length: 5.74355 Bohr) occupying 0.726681 of unit cell:	Completed after 11 iterations at t[s]:   4082.33
	FillingsUpdate:  mu: -0.244750400  nElectrons: 517.116621
	Linear fluid (dielectric constant: 78.4, screening length: 5.74355 Bohr) occupying 0.726707 of unit cell:	Completed after 9 iterations at t[s]:   4158.34
SCF: Cycle: 40   G: -2193.764550395361766   dG: -1.540e-05   |Residual|: 4.865e-04   |deigs|: 3.617e-05  t[s]:   4160.22
	Linear fluid (dielectric constant: 78.4, screening length: 5.74355 Bohr) occupying 0.726679 of unit cell:	Completed after 8 iterations at t[s]:   4161.82
	FillingsUpdate:  mu: -0.244750400  nElectrons: 517.084027
	Linear fluid (dielectric constant: 78.4, screening length: 5.74355 Bohr) occupying 0.726706 of unit cell:	Completed after 14 iterations at t[s]:   4238.99
SCF: Cycle: 41   G: -2193.764500628434234   dG: +4.977e-05   |Residual|: 7.230e-04   |deigs|: 7.279e-05  t[s]:   4240.88
	Linear fluid (dielectric constant: 78.4, screening length: 5.74355 Bohr) occupying 0.726685 of unit cell:	Completed after 13 iterations at t[s]:   4243.06
	FillingsUpdate:  mu: -0.244750400  nElectrons: 517.121445
	Linear fluid (dielectric constant: 78.4, screening length: 5.74355 Bohr) occupying 0.726709 of unit cell:	Completed after 9 iterations at t[s]:   4320.39
SCF: Cycle: 42   G: -2193.764546577422152   dG: -4.595e-05   |Residual|: 7.104e-04   |deigs|: 7.585e-05  t[s]:   4322.39
	Linear fluid (dielectric constant: 78.4, screening length: 5.74355 Bohr) occupying 0.726679 of unit cell:	Completed after 8 iterations at t[s]:   4324.10
	FillingsUpdate:  mu: -0.244750400  nElectrons: 517.085686
	Linear fluid (dielectric constant: 78.4, screening length: 5.74355 Bohr) occupying 0.726707 of unit cell:	Completed after 12 iterations at t[s]:   4401.69
SCF: Cycle: 43   G: -2193.764515216799737   dG: +3.136e-05   |Residual|: 5.958e-04   |deigs|: 6.843e-05  t[s]:   4403.49
	Linear fluid (dielectric constant: 78.4, screening length: 5.74355 Bohr) occupying 0.726684 of unit cell:	Completed after 12 iterations at t[s]:   4405.57
	FillingsUpdate:  mu: -0.244750400  nElectrons: 517.123059
	Linear fluid (dielectric constant: 78.4, screening length: 5.74355 Bohr) occupying 0.726709 of unit cell:	Completed after 10 iterations at t[s]:   4481.67
SCF: Cycle: 44   G: -2193.764547573543950   dG: -3.236e-05   |Residual|: 5.885e-04   |deigs|: 7.496e-05  t[s]:   4483.52
	Linear fluid (dielectric constant: 78.4, screening length: 5.74355 Bohr) occupying 0.726685 of unit cell:	Completed after 10 iterations at t[s]:   4485.36
	FillingsUpdate:  mu: -0.244750400  nElectrons: 517.079703
	Linear fluid (dielectric constant: 78.4, screening length: 5.74355 Bohr) occupying 0.726707 of unit cell:	Completed after 14 iterations at t[s]:   4561.62
SCF: Cycle: 45   G: -2193.764492249689283   dG: +5.532e-05   |Residual|: 7.148e-04   |deigs|: 9.068e-05  t[s]:   4563.36
	Linear fluid (dielectric constant: 78.4, screening length: 5.74355 Bohr) occupying 0.726675 of unit cell:	Completed after 13 iterations at t[s]:   4565.48
	FillingsUpdate:  mu: -0.244750400  nElectrons: 517.124025
	Linear fluid (dielectric constant: 78.4, screening length: 5.74355 Bohr) occupying 0.726707 of unit cell:	Completed after 9 iterations at t[s]:   4641.40
SCF: Cycle: 46   G: -2193.764547366244642   dG: -5.512e-05   |Residual|: 3.953e-04   |deigs|: 1.000e-04  t[s]:   4643.15
	Linear fluid (dielectric constant: 78.4, screening length: 5.74355 Bohr) occupying 0.726673 of unit cell:	Completed after 10 iterations at t[s]:   4645.03
	FillingsUpdate:  mu: -0.244750400  nElectrons: 517.113483
	Linear fluid (dielectric constant: 78.4, screening length: 5.74355 Bohr) occupying 0.726705 of unit cell:	Completed after 5 iterations at t[s]:   4713.65
SCF: Cycle: 47   G: -2193.764553140096723   dG: -5.774e-06   |Residual|: 2.554e-04   |deigs|: 2.069e-05  t[s]:   4715.44
	Linear fluid (dielectric constant: 78.4, screening length: 5.74355 Bohr) occupying 0.726673 of unit cell:	Completed after 3 iterations at t[s]:   4716.47
	FillingsUpdate:  mu: -0.244750400  nElectrons: 517.077993
	Linear fluid (dielectric constant: 78.4, screening length: 5.74355 Bohr) occupying 0.726703 of unit cell:	Completed after 12 iterations at t[s]:   4786.73
SCF: Cycle: 48   G: -2193.764509284133055   dG: +4.386e-05   |Residual|: 5.212e-04   |deigs|: 7.368e-05  t[s]:   4788.62
	Linear fluid (dielectric constant: 78.4, screening length: 5.74355 Bohr) occupying 0.726689 of unit cell:	Completed after 12 iterations at t[s]:   4790.58
	FillingsUpdate:  mu: -0.244750400  nElectrons: 517.123192
	Linear fluid (dielectric constant: 78.4, screening length: 5.74355 Bohr) occupying 0.726708 of unit cell:	Completed after 9 iterations at t[s]:   4860.42
SCF: Cycle: 49   G: -2193.764546194466220   dG: -3.691e-05   |Residual|: 7.031e-04   |deigs|: 8.526e-05  t[s]:   4862.28
	Linear fluid (dielectric constant: 78.4, screening length: 5.74355 Bohr) occupying 0.726683 of unit cell:	Completed after 8 iterations at t[s]:   4863.84
	FillingsUpdate:  mu: -0.244750400  nElectrons: 517.064185
	Linear fluid (dielectric constant: 78.4, screening length: 5.74355 Bohr) occupying 0.726704 of unit cell:	Completed after 14 iterations at t[s]:   4935.52
SCF: Cycle: 50   G: -2193.764440927171108   dG: +1.053e-04   |Residual|: 8.636e-04   |deigs|: 1.155e-04  t[s]:   4937.68
	Linear fluid (dielectric constant: 78.4, screening length: 5.74355 Bohr) occupying 0.726678 of unit cell:	Completed after 14 iterations at t[s]:   4940.04
	FillingsUpdate:  mu: -0.244750400  nElectrons: 517.113235
	Linear fluid (dielectric constant: 78.4, screening length: 5.74355 Bohr) occupying 0.726705 of unit cell:	Completed after 5 iterations at t[s]:   5010.43
SCF: Cycle: 51   G: -2193.764553268939380   dG: -1.123e-04   |Residual|: 2.557e-04   |deigs|: 1.068e-04  t[s]:   5012.32
	Linear fluid (dielectric constant: 78.4, screening length: 5.74355 Bohr) occupying 0.726675 of unit cell:	Completed after 3 iterations at t[s]:   5013.39
	FillingsUpdate:  mu: -0.244750400  nElectrons: 517.098411
	Linear fluid (dielectric constant: 78.4, screening length: 5.74355 Bohr) occupying 0.726703 of unit cell:	Completed after 9 iterations at t[s]:   5082.57
SCF: Cycle: 52   G: -2193.764550706475347   dG: +2.562e-06   |Residual|: 2.009e-04   |deigs|: 2.990e-05  t[s]:   5084.54
	Linear fluid (dielectric constant: 78.4, screening length: 5.74355 Bohr) occupying 0.726680 of unit cell:	Completed after 9 iterations at t[s]:   5086.38
	FillingsUpdate:  mu: -0.244750400  nElectrons: 517.108272
	Linear fluid (dielectric constant: 78.4, screening length: 5.74355 Bohr) occupying 0.726704 of unit cell:	Completed after 4 iterations at t[s]:   5156.27
SCF: Cycle: 53   G: -2193.764552739108694   dG: -2.033e-06   |Residual|: 2.234e-04   |deigs|: 2.191e-05  t[s]:   5158.15
	Linear fluid (dielectric constant: 78.4, screening length: 5.74355 Bohr) occupying 0.726677 of unit cell:	Completed after 5 iterations at t[s]:   5159.41
	FillingsUpdate:  mu: -0.244750400  nElectrons: 517.132882
	Linear fluid (dielectric constant: 78.4, screening length: 5.74355 Bohr) occupying 0.726705 of unit cell:	Completed after 12 iterations at t[s]:   5235.55
SCF: Cycle: 54   G: -2193.764530241104239   dG: +2.250e-05   |Residual|: 4.060e-04   |deigs|: 5.601e-05  t[s]:   5237.44
	Linear fluid (dielectric constant: 78.4, screening length: 5.74355 Bohr) occupying 0.726677 of unit cell:	Completed after 12 iterations at t[s]:   5239.54
	FillingsUpdate:  mu: -0.244750400  nElectrons: 517.103893
	Linear fluid (dielectric constant: 78.4, screening length: 5.74355 Bohr) occupying 0.726704 of unit cell:	Completed after 4 iterations at t[s]:   5308.96
SCF: Cycle: 55   G: -2193.764552992440713   dG: -2.275e-05   |Residual|: 2.314e-04   |deigs|: 5.546e-05  t[s]:   5310.74
	Linear fluid (dielectric constant: 78.4, screening length: 5.74355 Bohr) occupying 0.726682 of unit cell:	Completed after 4 iterations at t[s]:   5312.16
	FillingsUpdate:  mu: -0.244750400  nElectrons: 517.112513
	Linear fluid (dielectric constant: 78.4, screening length: 5.74355 Bohr) occupying 0.726706 of unit cell:	Completed after 5 iterations at t[s]:   5383.84
SCF: Cycle: 56   G: -2193.764552346143773   dG: +6.463e-07   |Residual|: 3.347e-04   |deigs|: 2.484e-05  t[s]:   5385.63
	Linear fluid (dielectric constant: 78.4, screening length: 5.74355 Bohr) occupying 0.726685 of unit cell:	Completed after 4 iterations at t[s]:   5386.72
	FillingsUpdate:  mu: -0.244750400  nElectrons: 517.124276
	Linear fluid (dielectric constant: 78.4, screening length: 5.74355 Bohr) occupying 0.726705 of unit cell:	Completed after 10 iterations at t[s]:   5464.60
SCF: Cycle: 57   G: -2193.764545089732110   dG: +7.256e-06   |Residual|: 3.512e-04   |deigs|: 3.216e-05  t[s]:   5466.69
	Linear fluid (dielectric constant: 78.4, screening length: 5.74355 Bohr) occupying 0.726693 of unit cell:	Completed after 11 iterations at t[s]:   5468.87
	FillingsUpdate:  mu: -0.244750400  nElectrons: 517.122376
	Linear fluid (dielectric constant: 78.4, screening length: 5.74355 Bohr) occupying 0.726707 of unit cell:	Completed after 10 iterations at t[s]:   5538.79
SCF: Cycle: 58   G: -2193.764544951784956   dG: +1.379e-07   |Residual|: 2.731e-04   |deigs|: 6.256e-06  t[s]:   5540.56
	Linear fluid (dielectric constant: 78.4, screening length: 5.74355 Bohr) occupying 0.726695 of unit cell:	Completed after 10 iterations at t[s]:   5542.41
	FillingsUpdate:  mu: -0.244750400  nElectrons: 517.115120
	Linear fluid (dielectric constant: 78.4, screening length: 5.74355 Bohr) occupying 0.726707 of unit cell:	Completed after 8 iterations at t[s]:   5618.59
SCF: Cycle: 59   G: -2193.764551385761024   dG: -6.434e-06   |Residual|: 1.704e-04   |deigs|: 1.526e-05  t[s]:   5620.43
	Linear fluid (dielectric constant: 78.4, screening length: 5.74355 Bohr) occupying 0.726698 of unit cell:	Completed after 9 iterations at t[s]:   5622.14
	FillingsUpdate:  mu: -0.244750400  nElectrons: 517.116963
	Linear fluid (dielectric constant: 78.4, screening length: 5.74355 Bohr) occupying 0.726707 of unit cell:	Completed after 9 iterations at t[s]:   5691.20
SCF: Cycle: 60   G: -2193.764550975811289   dG: +4.099e-07   |Residual|: 2.141e-04   |deigs|: 4.110e-06  t[s]:   5692.89
	Linear fluid (dielectric constant: 78.4, screening length: 5.74355 Bohr) occupying 0.726705 of unit cell:	Completed after 9 iterations at t[s]:   5694.56
	FillingsUpdate:  mu: -0.244750400  nElectrons: 517.130804
	Linear fluid (dielectric constant: 78.4, screening length: 5.74355 Bohr) occupying 0.726708 of unit cell:	Completed after 12 iterations at t[s]:   5771.22
SCF: Cycle: 61   G: -2193.764535023023655   dG: +1.595e-05   |Residual|: 4.442e-04   |deigs|: 2.748e-05  t[s]:   5773.14
	Linear fluid (dielectric constant: 78.4, screening length: 5.74355 Bohr) occupying 0.726704 of unit cell:	Completed after 12 iterations at t[s]:   5775.32
	FillingsUpdate:  mu: -0.244750400  nElectrons: 517.131015
	Linear fluid (dielectric constant: 78.4, screening length: 5.74355 Bohr) occupying 0.726708 of unit cell:	Completed after 12 iterations at t[s]:   5846.88
SCF: Cycle: 62   G: -2193.764533344462507   dG: +1.679e-06   |Residual|: 4.129e-04   |deigs|: 4.464e-06  t[s]:   5848.74
	Linear fluid (dielectric constant: 78.4, screening length: 5.74355 Bohr) occupying 0.726709 of unit cell:	Completed after 12 iterations at t[s]:   5850.87
	FillingsUpdate:  mu: -0.244750400  nElectrons: 517.130118
	Linear fluid (dielectric constant: 78.4, screening length: 5.74355 Bohr) occupying 0.726709 of unit cell:	Completed after 12 iterations at t[s]:   5921.92
SCF: Cycle: 63   G: -2193.764535541441546   dG: -2.197e-06   |Residual|: 4.144e-04   |deigs|: 3.470e-06  t[s]:   5923.62
	Linear fluid (dielectric constant: 78.4, screening length: 5.74355 Bohr) occupying 0.726714 of unit cell:	Completed after 12 iterations at t[s]:   5925.69
	FillingsUpdate:  mu: -0.244750400  nElectrons: 517.138677
	Linear fluid (dielectric constant: 78.4, screening length: 5.74355 Bohr) occupying 0.726710 of unit cell:	Completed after 13 iterations at t[s]:   5995.12
SCF: Cycle: 64   G: -2193.764521966449593   dG: +1.357e-05   |Residual|: 5.823e-04   |deigs|: 1.561e-05  t[s]:   5996.83
	Linear fluid (dielectric constant: 78.4, screening length: 5.74355 Bohr) occupying 0.726702 of unit cell:	Completed after 13 iterations at t[s]:   5998.90
	FillingsUpdate:  mu: -0.244750400  nElectrons: 517.123564
	Linear fluid (dielectric constant: 78.4, screening length: 5.74355 Bohr) occupying 0.726707 of unit cell:	Completed after 10 iterations at t[s]:   6069.45
SCF: Cycle: 65   G: -2193.764546095457717   dG: -2.413e-05   |Residual|: 3.363e-04   |deigs|: 3.008e-05  t[s]:   6071.42
	Linear fluid (dielectric constant: 78.4, screening length: 5.74355 Bohr) occupying 0.726701 of unit cell:	Completed after 10 iterations at t[s]:   6073.24
	FillingsUpdate:  mu: -0.244750400  nElectrons: 517.116730
	Linear fluid (dielectric constant: 78.4, screening length: 5.74355 Bohr) occupying 0.726707 of unit cell:	Completed after 10 iterations at t[s]:   6142.68
SCF: Cycle: 66   G: -2193.764550176448665   dG: -4.081e-06   |Residual|: 2.359e-04   |deigs|: 1.348e-05  t[s]:   6144.53
	Linear fluid (dielectric constant: 78.4, screening length: 5.74355 Bohr) occupying 0.726701 of unit cell:	Completed after 9 iterations at t[s]:   6146.25
	FillingsUpdate:  mu: -0.244750400  nElectrons: 517.111562
	Linear fluid (dielectric constant: 78.4, screening length: 5.74355 Bohr) occupying 0.726707 of unit cell:	Completed after 5 iterations at t[s]:   6214.83
SCF: Cycle: 67   G: -2193.764553082382008   dG: -2.906e-06   |Residual|: 2.336e-04   |deigs|: 1.374e-05  t[s]:   6216.82
	Linear fluid (dielectric constant: 78.4, screening length: 5.74355 Bohr) occupying 0.726703 of unit cell:	Completed after 4 iterations at t[s]:   6218.00
	FillingsUpdate:  mu: -0.244750400  nElectrons: 517.098082
	Linear fluid (dielectric constant: 78.4, screening length: 5.74355 Bohr) occupying 0.726707 of unit cell:	Completed after 11 iterations at t[s]:   6288.59
SCF: Cycle: 68   G: -2193.764542387666097   dG: +1.069e-05   |Residual|: 4.238e-04   |deigs|: 3.690e-05  t[s]:   6290.50
	Linear fluid (dielectric constant: 78.4, screening length: 5.74355 Bohr) occupying 0.726701 of unit cell:	Completed after 10 iterations at t[s]:   6292.60
	FillingsUpdate:  mu: -0.244750400  nElectrons: 517.133831
	Linear fluid (dielectric constant: 78.4, screening length: 5.74355 Bohr) occupying 0.726709 of unit cell:	Completed after 11 iterations at t[s]:   6363.23
SCF: Cycle: 69   G: -2193.764537260165525   dG: +5.128e-06   |Residual|: 5.648e-04   |deigs|: 7.216e-05  t[s]:   6365.20
	Linear fluid (dielectric constant: 78.4, screening length: 5.74355 Bohr) occupying 0.726700 of unit cell:	Completed after 11 iterations at t[s]:   6367.16
	FillingsUpdate:  mu: -0.244750400  nElectrons: 517.114880
	Linear fluid (dielectric constant: 78.4, screening length: 5.74355 Bohr) occupying 0.726707 of unit cell:	Completed after 8 iterations at t[s]:   6435.34
SCF: Cycle: 70   G: -2193.764551901227151   dG: -1.464e-05   |Residual|: 2.846e-04   |deigs|: 3.593e-05  t[s]:   6437.05
	Linear fluid (dielectric constant: 78.4, screening length: 5.74355 Bohr) occupying 0.726701 of unit cell:	Completed after 8 iterations at t[s]:   6438.68
	FillingsUpdate:  mu: -0.244750400  nElectrons: 517.083524
	Linear fluid (dielectric constant: 78.4, screening length: 5.74355 Bohr) occupying 0.726705 of unit cell:	Completed after 12 iterations at t[s]:   6509.28
SCF: Cycle: 71   G: -2193.764521088361562   dG: +3.081e-05   |Residual|: 4.606e-04   |deigs|: 6.668e-05  t[s]:   6511.16
	Linear fluid (dielectric constant: 78.4, screening length: 5.74355 Bohr) occupying 0.726696 of unit cell:	Completed after 12 iterations at t[s]:   6513.24
	FillingsUpdate:  mu: -0.244750400  nElectrons: 517.117630
	Linear fluid (dielectric constant: 78.4, screening length: 5.74355 Bohr) occupying 0.726707 of unit cell:	Completed after 9 iterations at t[s]:   6581.86
SCF: Cycle: 72   G: -2193.764551893481894   dG: -3.081e-05   |Residual|: 2.972e-04   |deigs|: 7.169e-05  t[s]:   6583.74
	Linear fluid (dielectric constant: 78.4, screening length: 5.74355 Bohr) occupying 0.726699 of unit cell:	Completed after 8 iterations at t[s]:   6585.36
	FillingsUpdate:  mu: -0.244750400  nElectrons: 517.086300
	Linear fluid (dielectric constant: 78.4, screening length: 5.74355 Bohr) occupying 0.726706 of unit cell:	Completed after 11 iterations at t[s]:   6655.48
SCF: Cycle: 73   G: -2193.764533031981500   dG: +1.886e-05   |Residual|: 3.555e-04   |deigs|: 6.182e-05  t[s]:   6657.28
	Linear fluid (dielectric constant: 78.4, screening length: 5.74355 Bohr) occupying 0.726707 of unit cell:	Completed after 11 iterations at t[s]:   6659.23
	FillingsUpdate:  mu: -0.244750400  nElectrons: 517.125819
	Linear fluid (dielectric constant: 78.4, screening length: 5.74355 Bohr) occupying 0.726708 of unit cell:	Completed after 10 iterations at t[s]:   6728.69
SCF: Cycle: 74   G: -2193.764545374926001   dG: -1.234e-05   |Residual|: 3.474e-04   |deigs|: 7.886e-05  t[s]:   6730.76
	Linear fluid (dielectric constant: 78.4, screening length: 5.74355 Bohr) occupying 0.726706 of unit cell:	Completed after 10 iterations at t[s]:   6732.85
	FillingsUpdate:  mu: -0.244750400  nElectrons: 517.105139
	Linear fluid (dielectric constant: 78.4, screening length: 5.74355 Bohr) occupying 0.726706 of unit cell:	Completed after 4 iterations at t[s]:   6802.59
SCF: Cycle: 75   G: -2193.764552599199305   dG: -7.224e-06   |Residual|: 2.595e-04   |deigs|: 3.654e-05  t[s]:   6804.41
	Linear fluid (dielectric constant: 78.4, screening length: 5.74355 Bohr) occupying 0.726706 of unit cell:	Completed after 4 iterations at t[s]:   6805.71
	FillingsUpdate:  mu: -0.244750400  nElectrons: 517.081834
	Linear fluid (dielectric constant: 78.4, screening length: 5.74355 Bohr) occupying 0.726707 of unit cell:	Completed after 12 iterations at t[s]:   6877.28
SCF: Cycle: 76   G: -2193.764521492525091   dG: +3.111e-05   |Residual|: 4.314e-04   |deigs|: 6.142e-05  t[s]:   6878.99
	Linear fluid (dielectric constant: 78.4, screening length: 5.74355 Bohr) occupying 0.726709 of unit cell:	Completed after 12 iterations at t[s]:   6881.14
	FillingsUpdate:  mu: -0.244750400  nElectrons: 517.136839
	Linear fluid (dielectric constant: 78.4, screening length: 5.74355 Bohr) occupying 0.726710 of unit cell:	Completed after 11 iterations at t[s]:   6953.12
SCF: Cycle: 77   G: -2193.764534332634867   dG: -1.284e-05   |Residual|: 7.852e-04   |deigs|: 1.028e-04  t[s]:   6955.02
	Linear fluid (dielectric constant: 78.4, screening length: 5.74355 Bohr) occupying 0.726712 of unit cell:	Completed after 11 iterations at t[s]:   6957.06
	FillingsUpdate:  mu: -0.244750400  nElectrons: 517.119858
	Linear fluid (dielectric constant: 78.4, screening length: 5.74355 Bohr) occupying 0.726709 of unit cell:	Completed after 9 iterations at t[s]:   7028.01
SCF: Cycle: 78   G: -2193.764547892812971   dG: -1.356e-05   |Residual|: 6.163e-04   |deigs|: 3.365e-05  t[s]:   7029.97
	Linear fluid (dielectric constant: 78.4, screening length: 5.74355 Bohr) occupying 0.726709 of unit cell:	Completed after 9 iterations at t[s]:   7031.97
	FillingsUpdate:  mu: -0.244750400  nElectrons: 517.082110
	Linear fluid (dielectric constant: 78.4, screening length: 5.74355 Bohr) occupying 0.726707 of unit cell:	Completed after 12 iterations at t[s]:   7103.24
SCF: Cycle: 79   G: -2193.764513060669742   dG: +3.483e-05   |Residual|: 5.354e-04   |deigs|: 7.254e-05  t[s]:   7104.90
	Linear fluid (dielectric constant: 78.4, screening length: 5.74355 Bohr) occupying 0.726711 of unit cell:	Completed after 12 iterations at t[s]:   7106.91
	FillingsUpdate:  mu: -0.244750400  nElectrons: 517.127670
	Linear fluid (dielectric constant: 78.4, screening length: 5.74355 Bohr) occupying 0.726709 of unit cell:	Completed after 10 iterations at t[s]:   7176.19
SCF: Cycle: 80   G: -2193.764544617347838   dG: -3.156e-05   |Residual|: 4.880e-04   |deigs|: 9.381e-05  t[s]:   7177.86
	Linear fluid (dielectric constant: 78.4, screening length: 5.74355 Bohr) occupying 0.726708 of unit cell:	Completed after 10 iterations at t[s]:   7179.61
	FillingsUpdate:  mu: -0.244750400  nElectrons: 517.105738
	Linear fluid (dielectric constant: 78.4, screening length: 5.74355 Bohr) occupying 0.726707 of unit cell:	Completed after 4 iterations at t[s]:   7248.91
SCF: Cycle: 81   G: -2193.764553391404206   dG: -8.774e-06   |Residual|: 1.714e-04   |deigs|: 4.009e-05  t[s]:   7250.54
	Linear fluid (dielectric constant: 78.4, screening length: 5.74355 Bohr) occupying 0.726710 of unit cell:	Completed after 4 iterations at t[s]:   7251.72
	FillingsUpdate:  mu: -0.244750400  nElectrons: 517.117075
	Linear fluid (dielectric constant: 78.4, screening length: 5.74355 Bohr) occupying 0.726707 of unit cell:	Completed after 9 iterations at t[s]:   7320.77
SCF: Cycle: 82   G: -2193.764549592908224   dG: +3.798e-06   |Residual|: 1.815e-04   |deigs|: 2.821e-05  t[s]:   7322.58
	Linear fluid (dielectric constant: 78.4, screening length: 5.74355 Bohr) occupying 0.726706 of unit cell:	Completed after 9 iterations at t[s]:   7324.30
	FillingsUpdate:  mu: -0.244750400  nElectrons: 517.096428
	Linear fluid (dielectric constant: 78.4, screening length: 5.74355 Bohr) occupying 0.726706 of unit cell:	Completed after 9 iterations at t[s]:   7393.99
SCF: Cycle: 83   G: -2193.764551370994468   dG: -1.778e-06   |Residual|: 1.753e-04   |deigs|: 4.172e-05  t[s]:   7395.92
	Linear fluid (dielectric constant: 78.4, screening length: 5.74355 Bohr) occupying 0.726708 of unit cell:	Completed after 9 iterations at t[s]:   7397.80
	FillingsUpdate:  mu: -0.244750400  nElectrons: 517.120501
	Linear fluid (dielectric constant: 78.4, screening length: 5.74355 Bohr) occupying 0.726708 of unit cell:	Completed after 10 iterations at t[s]:   7466.91
SCF: Cycle: 84   G: -2193.764550126466929   dG: +1.245e-06   |Residual|: 3.629e-04   |deigs|: 4.438e-05  t[s]:   7468.92
	Linear fluid (dielectric constant: 78.4, screening length: 5.74355 Bohr) occupying 0.726707 of unit cell:	Completed after 9 iterations at t[s]:   7470.80
	FillingsUpdate:  mu: -0.244750400  nElectrons: 517.091940
	Linear fluid (dielectric constant: 78.4, screening length: 5.74355 Bohr) occupying 0.726707 of unit cell:	Completed after 11 iterations at t[s]:   7541.28
SCF: Cycle: 85   G: -2193.764540918506100   dG: +9.208e-06   |Residual|: 3.148e-04   |deigs|: 5.435e-05  t[s]:   7543.20
	Linear fluid (dielectric constant: 78.4, screening length: 5.74355 Bohr) occupying 0.726708 of unit cell:	Completed after 11 iterations at t[s]:   7545.34
	FillingsUpdate:  mu: -0.244750400  nElectrons: 517.124404
	Linear fluid (dielectric constant: 78.4, screening length: 5.74355 Bohr) occupying 0.726708 of unit cell:	Completed after 9 iterations at t[s]:   7615.92
SCF: Cycle: 86   G: -2193.764547076863892   dG: -6.158e-06   |Residual|: 3.448e-04   |deigs|: 6.472e-05  t[s]:   7617.45
	Linear fluid (dielectric constant: 78.4, screening length: 5.74355 Bohr) occupying 0.726708 of unit cell:	Completed after 10 iterations at t[s]:   7619.28
	FillingsUpdate:  mu: -0.244750400  nElectrons: 517.109361
	Linear fluid (dielectric constant: 78.4, screening length: 5.74355 Bohr) occupying 0.726707 of unit cell:	Completed after 4 iterations at t[s]:   7688.85
SCF: Cycle: 87   G: -2193.764553110279394   dG: -6.033e-06   |Residual|: 1.453e-04   |deigs|: 2.725e-05  t[s]:   7690.64
	Linear fluid (dielectric constant: 78.4, screening length: 5.74355 Bohr) occupying 0.726708 of unit cell:	Completed after 4 iterations at t[s]:   7691.84
	FillingsUpdate:  mu: -0.244750400  nElectrons: 517.075624
	Linear fluid (dielectric constant: 78.4, screening length: 5.74355 Bohr) occupying 0.726706 of unit cell:	Completed after 13 iterations at t[s]:   7762.11
SCF: Cycle: 88   G: -2193.764510740168134   dG: +4.237e-05   |Residual|: 4.759e-04   |deigs|: 7.400e-05  t[s]:   7763.86
	Linear fluid (dielectric constant: 78.4, screening length: 5.74355 Bohr) occupying 0.726709 of unit cell:	Completed after 13 iterations at t[s]:   7766.07
	FillingsUpdate:  mu: -0.244750400  nElectrons: 517.117515
	Linear fluid (dielectric constant: 78.4, screening length: 5.74355 Bohr) occupying 0.726708 of unit cell:	Completed after 9 iterations at t[s]:   7834.86
SCF: Cycle: 89   G: -2193.764551762798874   dG: -4.102e-05   |Residual|: 2.473e-04   |deigs|: 8.303e-05  t[s]:   7836.56
	Linear fluid (dielectric constant: 78.4, screening length: 5.74355 Bohr) occupying 0.726708 of unit cell:	Completed after 9 iterations at t[s]:   7838.36
	FillingsUpdate:  mu: -0.244750400  nElectrons: 517.100822
	Linear fluid (dielectric constant: 78.4, screening length: 5.74355 Bohr) occupying 0.726707 of unit cell:	Completed after 9 iterations at t[s]:   7908.05
SCF: Cycle: 90   G: -2193.764551855174432   dG: -9.238e-08   |Residual|: 1.677e-04   |deigs|: 3.120e-05  t[s]:   7909.89
	Linear fluid (dielectric constant: 78.4, screening length: 5.74355 Bohr) occupying 0.726708 of unit cell:	Completed after 9 iterations at t[s]:   7911.64
	FillingsUpdate:  mu: -0.244750400  nElectrons: 517.123056
	Linear fluid (dielectric constant: 78.4, screening length: 5.74355 Bohr) occupying 0.726708 of unit cell:	Completed after 10 iterations at t[s]:   8007.61
SCF: Cycle: 91   G: -2193.764546678864008   dG: +5.176e-06   |Residual|: 2.671e-04   |deigs|: 4.374e-05  t[s]:   8009.66
	Linear fluid (dielectric constant: 78.4, screening length: 5.74355 Bohr) occupying 0.726708 of unit cell:	Completed after 10 iterations at t[s]:   8011.48
	FillingsUpdate:  mu: -0.244750400  nElectrons: 517.098960
	Linear fluid (dielectric constant: 78.4, screening length: 5.74355 Bohr) occupying 0.726706 of unit cell:	Completed after 9 iterations at t[s]:   8082.93
SCF: Cycle: 92   G: -2193.764551826841853   dG: -5.148e-06   |Residual|: 2.577e-04   |deigs|: 4.424e-05  t[s]:   8085.18
	Linear fluid (dielectric constant: 78.4, screening length: 5.74355 Bohr) occupying 0.726708 of unit cell:	Completed after 5 iterations at t[s]:   8086.68
	FillingsUpdate:  mu: -0.244750400  nElectrons: 517.146160
	Linear fluid (dielectric constant: 78.4, screening length: 5.74355 Bohr) occupying 0.726710 of unit cell:	Completed after 13 iterations at t[s]:   8157.91
SCF: Cycle: 93   G: -2193.764493695246074   dG: +5.813e-05   |Residual|: 5.721e-04   |deigs|: 9.167e-05  t[s]:   8159.80
	Linear fluid (dielectric constant: 78.4, screening length: 5.74355 Bohr) occupying 0.726709 of unit cell:	Completed after 13 iterations at t[s]:   8161.99
	FillingsUpdate:  mu: -0.244750400  nElectrons: 517.103221
	Linear fluid (dielectric constant: 78.4, screening length: 5.74355 Bohr) occupying 0.726707 of unit cell:	Completed after 4 iterations at t[s]:   8231.24
SCF: Cycle: 94   G: -2193.764553417581737   dG: -5.972e-05   |Residual|: 1.771e-04   |deigs|: 8.489e-05  t[s]:   8233.09
	Linear fluid (dielectric constant: 78.4, screening length: 5.74355 Bohr) occupying 0.726709 of unit cell:	Completed after 4 iterations at t[s]:   8234.32
	FillingsUpdate:  mu: -0.244750400  nElectrons: 517.110850
	Linear fluid (dielectric constant: 78.4, screening length: 5.74355 Bohr) occupying 0.726707 of unit cell:	Completed after 4 iterations at t[s]:   8303.88
SCF: Cycle: 95   G: -2193.764553874177182   dG: -4.566e-07   |Residual|: 8.837e-05   |deigs|: 1.796e-05  t[s]:   8305.60
	Linear fluid (dielectric constant: 78.4, screening length: 5.74355 Bohr) occupying 0.726708 of unit cell:	Completed after 3 iterations at t[s]:   8306.75
	FillingsUpdate:  mu: -0.244750400  nElectrons: 517.080463
	Linear fluid (dielectric constant: 78.4, screening length: 5.74355 Bohr) occupying 0.726706 of unit cell:	Completed after 11 iterations at t[s]:   8384.31
SCF: Cycle: 96   G: -2193.764524456483741   dG: +2.942e-05   |Residual|: 4.221e-04   |deigs|: 6.275e-05  t[s]:   8386.19
	Linear fluid (dielectric constant: 78.4, screening length: 5.74355 Bohr) occupying 0.726709 of unit cell:	Completed after 12 iterations at t[s]:   8388.37
	FillingsUpdate:  mu: -0.244750400  nElectrons: 517.115817
	Linear fluid (dielectric constant: 78.4, screening length: 5.74355 Bohr) occupying 0.726708 of unit cell:	Completed after 8 iterations at t[s]:   8457.62
SCF: Cycle: 97   G: -2193.764552403552443   dG: -2.795e-05   |Residual|: 2.305e-04   |deigs|: 6.925e-05  t[s]:   8459.39
	Linear fluid (dielectric constant: 78.4, screening length: 5.74355 Bohr) occupying 0.726709 of unit cell:	Completed after 8 iterations at t[s]:   8461.10
	FillingsUpdate:  mu: -0.244750400  nElectrons: 517.087682
	Linear fluid (dielectric constant: 78.4, screening length: 5.74355 Bohr) occupying 0.726706 of unit cell:	Completed after 11 iterations at t[s]:   8531.50
SCF: Cycle: 98   G: -2193.764538862572408   dG: +1.354e-05   |Residual|: 3.219e-04   |deigs|: 5.353e-05  t[s]:   8533.45
	Linear fluid (dielectric constant: 78.4, screening length: 5.74355 Bohr) occupying 0.726709 of unit cell:	Completed after 11 iterations at t[s]:   8535.47
	FillingsUpdate:  mu: -0.244750400  nElectrons: 517.118610
	Linear fluid (dielectric constant: 78.4, screening length: 5.74355 Bohr) occupying 0.726708 of unit cell:	Completed after 9 iterations at t[s]:   8606.30
SCF: Cycle: 99   G: -2193.764551268454852   dG: -1.241e-05   |Residual|: 2.723e-04   |deigs|: 5.862e-05  t[s]:   8608.35
	Linear fluid (dielectric constant: 78.4, screening length: 5.74355 Bohr) occupying 0.726709 of unit cell:	Completed after 9 iterations at t[s]:   8610.08
	FillingsUpdate:  mu: -0.244750400  nElectrons: 517.094502
	Linear fluid (dielectric constant: 78.4, screening length: 5.74355 Bohr) occupying 0.726707 of unit cell:	Completed after 10 iterations at t[s]:   8680.82
SCF: Cycle: 100   G: -2193.764546985602010   dG: +4.283e-06   |Residual|: 2.684e-04   |deigs|: 4.529e-05  t[s]:   8682.67
	Linear fluid (dielectric constant: 78.4, screening length: 5.74355 Bohr) occupying 0.726708 of unit cell:	Completed after 10 iterations at t[s]:   8684.84
	FillingsUpdate:  mu: -0.244750400  nElectrons: 517.122221
	Linear fluid (dielectric constant: 78.4, screening length: 5.74355 Bohr) occupying 0.726708 of unit cell:	Completed after 10 iterations at t[s]:   8755.49
SCF: Cycle: 101   G: -2193.764547723188116   dG: -7.376e-07   |Residual|: 2.849e-04   |deigs|: 5.316e-05  t[s]:   8757.27
	Linear fluid (dielectric constant: 78.4, screening length: 5.74355 Bohr) occupying 0.726708 of unit cell:	Completed after 10 iterations at t[s]:   8759.17
	FillingsUpdate:  mu: -0.244750400  nElectrons: 517.094947
	Linear fluid (dielectric constant: 78.4, screening length: 5.74355 Bohr) occupying 0.726706 of unit cell:	Completed after 9 iterations at t[s]:   8837.15
SCF: Cycle: 102   G: -2193.764549073864146   dG: -1.351e-06   |Residual|: 3.282e-04   |deigs|: 5.019e-05  t[s]:   8838.93
	Linear fluid (dielectric constant: 78.4, screening length: 5.74355 Bohr) occupying 0.726708 of unit cell:	Completed after 9 iterations at t[s]:   8840.75
	FillingsUpdate:  mu: -0.244750400  nElectrons: 517.133873
	Linear fluid (dielectric constant: 78.4, screening length: 5.74355 Bohr) occupying 0.726708 of unit cell:	Completed after 13 iterations at t[s]:   8910.96
SCF: Cycle: 103   G: -2193.764524938101204   dG: +2.414e-05   |Residual|: 4.501e-04   |deigs|: 7.386e-05  t[s]:   8912.79
	Linear fluid (dielectric constant: 78.4, screening length: 5.74355 Bohr) occupying 0.726708 of unit cell:	Completed after 12 iterations at t[s]:   8914.74
	FillingsUpdate:  mu: -0.244750400  nElectrons: 517.099628
	Linear fluid (dielectric constant: 78.4, screening length: 5.74355 Bohr) occupying 0.726707 of unit cell:	Completed after 5 iterations at t[s]:   8984.81
SCF: Cycle: 104   G: -2193.764552576560618   dG: -2.764e-05   |Residual|: 2.602e-04   |deigs|: 6.472e-05  t[s]:   8986.77
	Linear fluid (dielectric constant: 78.4, screening length: 5.74355 Bohr) occupying 0.726708 of unit cell:	Completed after 4 iterations at t[s]:   8988.20
	FillingsUpdate:  mu: -0.244750400  nElectrons: 517.117956
	Linear fluid (dielectric constant: 78.4, screening length: 5.74355 Bohr) occupying 0.726708 of unit cell:	Completed after 9 iterations at t[s]:   9058.21
SCF: Cycle: 105   G: -2193.764550176084413   dG: +2.400e-06   |Residual|: 1.627e-04   |deigs|: 3.381e-05  t[s]:   9060.14
	Linear fluid (dielectric constant: 78.4, screening length: 5.74355 Bohr) occupying 0.726708 of unit cell:	Completed after 9 iterations at t[s]:   9061.92
	FillingsUpdate:  mu: -0.244750400  nElectrons: 517.096581
	Linear fluid (dielectric constant: 78.4, screening length: 5.74355 Bohr) occupying 0.726706 of unit cell:	Completed after 9 iterations at t[s]:   9131.75
SCF: Cycle: 106   G: -2193.764551726920217   dG: -1.551e-06   |Residual|: 2.517e-04   |deigs|: 3.979e-05  t[s]:   9133.43
	Linear fluid (dielectric constant: 78.4, screening length: 5.74355 Bohr) occupying 0.726708 of unit cell:	Completed after 9 iterations at t[s]:   9135.11
	FillingsUpdate:  mu: -0.244750400  nElectrons: 517.128225
	Linear fluid (dielectric constant: 78.4, screening length: 5.74355 Bohr) occupying 0.726708 of unit cell:	Completed after 11 iterations at t[s]:   9205.56
SCF: Cycle: 107   G: -2193.764535194145992   dG: +1.653e-05   |Residual|: 3.707e-04   |deigs|: 6.004e-05  t[s]:   9207.47
	Linear fluid (dielectric constant: 78.4, screening length: 5.74355 Bohr) occupying 0.726708 of unit cell:	Completed after 11 iterations at t[s]:   9209.51
	FillingsUpdate:  mu: -0.244750400  nElectrons: 517.097874
	Linear fluid (dielectric constant: 78.4, screening length: 5.74355 Bohr) occupying 0.726706 of unit cell:	Completed after 8 iterations at t[s]:   9278.84
SCF: Cycle: 108   G: -2193.764552353779891   dG: -1.716e-05   |Residual|: 2.384e-04   |deigs|: 5.759e-05  t[s]:   9280.67
	Linear fluid (dielectric constant: 78.4, screening length: 5.74355 Bohr) occupying 0.726708 of unit cell:	Completed after 5 iterations at t[s]:   9281.99
	FillingsUpdate:  mu: -0.244750400  nElectrons: 517.156432
	Linear fluid (dielectric constant: 78.4, screening length: 5.74355 Bohr) occupying 0.726710 of unit cell:	Completed after 13 iterations at t[s]:   9351.77
SCF: Cycle: 109   G: -2193.764455242871918   dG: +9.711e-05   |Residual|: 7.229e-04   |deigs|: 1.148e-04  t[s]:   9353.61
	Linear fluid (dielectric constant: 78.4, screening length: 5.74355 Bohr) occupying 0.726708 of unit cell:	Completed after 14 iterations at t[s]:   9355.83
	FillingsUpdate:  mu: -0.244750400  nElectrons: 517.103113
	Linear fluid (dielectric constant: 78.4, screening length: 5.74355 Bohr) occupying 0.726707 of unit cell:	Completed after 5 iterations at t[s]:   9425.86
SCF: Cycle: 110   G: -2193.764553457684087   dG: -9.821e-05   |Residual|: 1.639e-04   |deigs|: 1.065e-04  t[s]:   9427.73
	Linear fluid (dielectric constant: 78.4, screening length: 5.74355 Bohr) occupying 0.726708 of unit cell:	Completed after 3 iterations at t[s]:   9428.80
	FillingsUpdate:  mu: -0.244750400  nElectrons: 517.111926
	Linear fluid (dielectric constant: 78.4, screening length: 5.74355 Bohr) occupying 0.726707 of unit cell:	Completed after 6 iterations at t[s]:   9497.89
SCF: Cycle: 111   G: -2193.764553506598077   dG: -4.891e-08   |Residual|: 1.109e-04   |deigs|: 1.986e-05  t[s]:   9499.83
	Linear fluid (dielectric constant: 78.4, screening length: 5.74355 Bohr) occupying 0.726707 of unit cell:	Completed after 4 iterations at t[s]:   9501.23
	FillingsUpdate:  mu: -0.244750400  nElectrons: 517.065330
	Linear fluid (dielectric constant: 78.4, screening length: 5.74355 Bohr) occupying 0.726705 of unit cell:	Completed after 14 iterations at t[s]:   9615.15
SCF: Cycle: 112   G: -2193.764483759360246   dG: +6.975e-05   |Residual|: 6.065e-04   |deigs|: 9.428e-05  t[s]:   9616.92
	Linear fluid (dielectric constant: 78.4, screening length: 5.74355 Bohr) occupying 0.726707 of unit cell:	Completed after 14 iterations at t[s]:   9619.33
	FillingsUpdate:  mu: -0.244750400  nElectrons: 517.110980
	Linear fluid (dielectric constant: 78.4, screening length: 5.74355 Bohr) occupying 0.726708 of unit cell:	Completed after 3 iterations at t[s]:   9688.53
SCF: Cycle: 113   G: -2193.764553777580659   dG: -7.002e-05   |Residual|: 1.575e-04   |deigs|: 9.104e-05  t[s]:   9690.24
	Linear fluid (dielectric constant: 78.4, screening length: 5.74355 Bohr) occupying 0.726707 of unit cell:	Completed after 3 iterations at t[s]:   9691.35
	FillingsUpdate:  mu: -0.244750400  nElectrons: 517.095480
	Linear fluid (dielectric constant: 78.4, screening length: 5.74355 Bohr) occupying 0.726706 of unit cell:	Completed after 9 iterations at t[s]:   9761.58
SCF: Cycle: 114   G: -2193.764550019770013   dG: +3.758e-06   |Residual|: 1.976e-04   |deigs|: 2.950e-05  t[s]:   9763.40
	Linear fluid (dielectric constant: 78.4, screening length: 5.74355 Bohr) occupying 0.726707 of unit cell:	Completed after 9 iterations at t[s]:   9765.15
	FillingsUpdate:  mu: -0.244750400  nElectrons: 517.118371
	Linear fluid (dielectric constant: 78.4, screening length: 5.74355 Bohr) occupying 0.726708 of unit cell:	Completed after 10 iterations at t[s]:   9835.94
SCF: Cycle: 115   G: -2193.764551326098626   dG: -1.306e-06   |Residual|: 2.444e-04   |deigs|: 4.185e-05  t[s]:   9838.01
	Linear fluid (dielectric constant: 78.4, screening length: 5.74355 Bohr) occupying 0.726707 of unit cell:	Completed after 8 iterations at t[s]:   9839.71
	FillingsUpdate:  mu: -0.244750400  nElectrons: 517.100183
	Linear fluid (dielectric constant: 78.4, screening length: 5.74355 Bohr) occupying 0.726707 of unit cell:	Completed after 8 iterations at t[s]:   9909.60
SCF: Cycle: 116   G: -2193.764551824785940   dG: -4.987e-07   |Residual|: 1.917e-04   |deigs|: 3.346e-05  t[s]:   9911.43
	Linear fluid (dielectric constant: 78.4, screening length: 5.74355 Bohr) occupying 0.726707 of unit cell:	Completed after 5 iterations at t[s]:   9912.75
	FillingsUpdate:  mu: -0.244750400  nElectrons: 517.161481
	Linear fluid (dielectric constant: 78.4, screening length: 5.74355 Bohr) occupying 0.726710 of unit cell:	Completed after 14 iterations at t[s]:  10009.52
SCF: Cycle: 117   G: -2193.764434473017900   dG: +1.174e-04   |Residual|: 8.187e-04   |deigs|: 1.235e-04  t[s]:  10011.34
	Linear fluid (dielectric constant: 78.4, screening length: 5.74355 Bohr) occupying 0.726708 of unit cell:	Completed after 14 iterations at t[s]:  10013.70
	FillingsUpdate:  mu: -0.244750400  nElectrons: 517.103300
	Linear fluid (dielectric constant: 78.4, screening length: 5.74355 Bohr) occupying 0.726706 of unit cell:	Completed after 5 iterations at t[s]:  10082.72
SCF: Cycle: 118   G: -2193.764553449708728   dG: -1.190e-04   |Residual|: 1.689e-04   |deigs|: 1.157e-04  t[s]:  10084.40
	Linear fluid (dielectric constant: 78.4, screening length: 5.74355 Bohr) occupying 0.726707 of unit cell:	Completed after 3 iterations at t[s]:  10085.55
	FillingsUpdate:  mu: -0.244750400  nElectrons: 517.107241
	Linear fluid (dielectric constant: 78.4, screening length: 5.74355 Bohr) occupying 0.726707 of unit cell:	Completed after 3 iterations at t[s]:  10154.50
SCF: Cycle: 119   G: -2193.764553894177425   dG: -4.445e-07   |Residual|: 1.008e-04   |deigs|: 1.714e-05  t[s]:  10156.51
	Linear fluid (dielectric constant: 78.4, screening length: 5.74355 Bohr) occupying 0.726707 of unit cell:	Completed after 3 iterations at t[s]:  10157.57
	FillingsUpdate:  mu: -0.244750400  nElectrons: 517.120885
	Linear fluid (dielectric constant: 78.4, screening length: 5.74355 Bohr) occupying 0.726707 of unit cell:	Completed after 11 iterations at t[s]:  10235.20
SCF: Cycle: 120   G: -2193.764543500658419   dG: +1.039e-05   |Residual|: 2.735e-04   |deigs|: 3.732e-05  t[s]:  10237.15
	Linear fluid (dielectric constant: 78.4, screening length: 5.74355 Bohr) occupying 0.726707 of unit cell:	Completed after 10 iterations at t[s]:  10239.02
	FillingsUpdate:  mu: -0.244750400  nElectrons: 517.097326
	Linear fluid (dielectric constant: 78.4, screening length: 5.74355 Bohr) occupying 0.726706 of unit cell:	Completed after 8 iterations at t[s]:  10303.61
SCF: Cycle: 121   G: -2193.764552184316926   dG: -8.684e-06   |Residual|: 2.005e-04   |deigs|: 4.617e-05  t[s]:  10305.05
	Linear fluid (dielectric constant: 78.4, screening length: 5.74355 Bohr) occupying 0.726707 of unit cell:	Completed after 8 iterations at t[s]:  10306.46
	FillingsUpdate:  mu: -0.244750400  nElectrons: 517.126104
	Linear fluid (dielectric constant: 78.4, screening length: 5.74355 Bohr) occupying 0.726708 of unit cell:	Completed after 12 iterations at t[s]:  10367.94
SCF: Cycle: 122   G: -2193.764540417367243   dG: +1.177e-05   |Residual|: 3.367e-04   |deigs|: 5.410e-05  t[s]:  10369.35
	Linear fluid (dielectric constant: 78.4, screening length: 5.74355 Bohr) occupying 0.726707 of unit cell:	Completed after 11 iterations at t[s]:  10371.01
	FillingsUpdate:  mu: -0.244750400  nElectrons: 517.099993
	Linear fluid (dielectric constant: 78.4, screening length: 5.74355 Bohr) occupying 0.726707 of unit cell:	Completed after 5 iterations at t[s]:  10443.23
SCF: Cycle: 123   G: -2193.764552877986262   dG: -1.246e-05   |Residual|: 2.132e-04   |deigs|: 4.846e-05  t[s]:  10444.62
	Linear fluid (dielectric constant: 78.4, screening length: 5.74355 Bohr) occupying 0.726707 of unit cell:	Completed after 3 iterations at t[s]:  10445.53
	FillingsUpdate:  mu: -0.244750400  nElectrons: 517.123820
	Linear fluid (dielectric constant: 78.4, screening length: 5.74355 Bohr) occupying 0.726708 of unit cell:	Completed after 11 iterations at t[s]:  10525.98
SCF: Cycle: 124   G: -2193.764543997102919   dG: +8.881e-06   |Residual|: 2.703e-04   |deigs|: 4.573e-05  t[s]:  10527.27
	Linear fluid (dielectric constant: 78.4, screening length: 5.74355 Bohr) occupying 0.726707 of unit cell:	Completed after 11 iterations at t[s]:  10528.92
	FillingsUpdate:  mu: -0.244750400  nElectrons: 517.101437
	Linear fluid (dielectric constant: 78.4, screening length: 5.74355 Bohr) occupying 0.726707 of unit cell:	Completed after 4 iterations at t[s]:  10589.67
SCF: Cycle: 125   G: -2193.764553494614120   dG: -9.498e-06   |Residual|: 1.758e-04   |deigs|: 4.244e-05  t[s]:  10591.12
	Linear fluid (dielectric constant: 78.4, screening length: 5.74355 Bohr) occupying 0.726707 of unit cell:	Completed after 3 iterations at t[s]:  10592.08
	FillingsUpdate:  mu: -0.244750400  nElectrons: 517.113578
	Linear fluid (dielectric constant: 78.4, screening length: 5.74355 Bohr) occupying 0.726707 of unit cell:	Completed after 3 iterations at t[s]:  10653.44
SCF: Cycle: 126   G: -2193.764553387660271   dG: +1.070e-07   |Residual|: 1.497e-04   |deigs|: 2.364e-05  t[s]:  10654.75
	Linear fluid (dielectric constant: 78.4, screening length: 5.74355 Bohr) occupying 0.726707 of unit cell:	Completed after 3 iterations at t[s]:  10655.65
	FillingsUpdate:  mu: -0.244750400  nElectrons: 517.071184
	Linear fluid (dielectric constant: 78.4, screening length: 5.74355 Bohr) occupying 0.726706 of unit cell:	Completed after 13 iterations at t[s]:  10752.61
SCF: Cycle: 127   G: -2193.764502689758956   dG: +5.070e-05   |Residual|: 5.437e-04   |deigs|: 8.346e-05  t[s]:  10754.00
	Linear fluid (dielectric constant: 78.4, screening length: 5.74355 Bohr) occupying 0.726707 of unit cell:	Completed after 13 iterations at t[s]:  10755.91
	FillingsUpdate:  mu: -0.244750400  nElectrons: 517.111464
[...]
SCF: Cycle: 134   G: -2193.764545685677604   dG: -2.928e-05   |Residual|: 4.153e-04   |deigs|: 9.067e-05  t[s]:  10401.80
	Linear fluid (dielectric constant: 78.4, screening length: 5.74355 Bohr) occupying 0.726690 of unit cell:	Completed after 10 iterations at t[s]:  10403.56
	FillingsUpdate:  mu: -0.244750400  nElectrons: 517.099611
	Linear fluid (dielectric constant: 78.4, screening length: 5.74355 Bohr) occupying 0.726704 of unit cell:	Completed after 8 iterations at t[s]:  10473.51
SCF: Cycle: 135   G: -2193.764551966361523   dG: -6.281e-06   |Residual|: 1.772e-04   |deigs|: 2.014e-05  t[s]:  10475.41
	Linear fluid (dielectric constant: 78.4, screening length: 5.74355 Bohr) occupying 0.726690 of unit cell:	Completed after 8 iterations at t[s]:  10476.98
	FillingsUpdate:  mu: -0.244750400  nElectrons: 517.112178
	Linear fluid (dielectric constant: 78.4, screening length: 5.74355 Bohr) occupying 0.726705 of unit cell:	Completed after 5 iterations at t[s]:  10546.09
SCF: Cycle: 136   G: -2193.764553550538494   dG: -1.584e-06   |Residual|: 9.501e-05   |deigs|: 2.425e-05  t[s]:  10547.77
	Linear fluid (dielectric constant: 78.4, screening length: 5.74355 Bohr) occupying 0.726690 of unit cell:	Completed after 3 iterations at t[s]:  10548.92
	FillingsUpdate:  mu: -0.244750400  nElectrons: 517.058872
	Linear fluid (dielectric constant: 78.4, screening length: 5.74355 Bohr) occupying 0.726702 of unit cell:	Completed after 13 iterations at t[s]:  10619.62
SCF: Cycle: 137   G: -2193.764469669402388   dG: +8.388e-05   |Residual|: 7.141e-04   |deigs|: 1.059e-04  t[s]:  10621.57
	Linear fluid (dielectric constant: 78.4, screening length: 5.74355 Bohr) occupying 0.726690 of unit cell:	Completed after 14 iterations at t[s]:  10623.92
	FillingsUpdate:  mu: -0.244750400  nElectrons: 517.099166
	Linear fluid (dielectric constant: 78.4, screening length: 5.74355 Bohr) occupying 0.726704 of unit cell:	Completed after 10 iterations at t[s]:  10694.15
SCF: Cycle: 138   G: -2193.764551497040429   dG: -8.183e-05   |Residual|: 1.829e-04   |deigs|: 7.971e-05  t[s]:  10696.04
	Linear fluid (dielectric constant: 78.4, screening length: 5.74355 Bohr) occupying 0.726690 of unit cell:	Completed after 9 iterations at t[s]:  10697.76
	FillingsUpdate:  mu: -0.244750400  nElectrons: 517.108277
	Linear fluid (dielectric constant: 78.4, screening length: 5.74355 Bohr) occupying 0.726705 of unit cell:	Completed after 3 iterations at t[s]:  10766.87
SCF: Cycle: 139   G: -2193.764554090839738   dG: -2.594e-06   |Residual|: 9.105e-05   |deigs|: 1.694e-05  t[s]:  10768.89
	Linear fluid (dielectric constant: 78.4, screening length: 5.74355 Bohr) occupying 0.726691 of unit cell:	Completed after 2 iterations at t[s]:  10769.80
	FillingsUpdate:  mu: -0.244750400  nElectrons: 517.110552
	Linear fluid (dielectric constant: 78.4, screening length: 5.74355 Bohr) occupying 0.726704 of unit cell:	Completed after 7 iterations at t[s]:  10839.50
SCF: Cycle: 140   G: -2193.764551521223439   dG: +2.570e-06   |Residual|: 2.188e-04   |deigs|: 1.983e-05  t[s]:  10841.07
	Linear fluid (dielectric constant: 78.4, screening length: 5.74355 Bohr) occupying 0.726691 of unit cell:	Completed after 5 iterations at t[s]:  10842.37
	FillingsUpdate:  mu: -0.244750400  nElectrons: 517.038838
	Linear fluid (dielectric constant: 78.4, screening length: 5.74355 Bohr) occupying 0.726701 of unit cell:	Completed after 15 iterations at t[s]:  10912.85
SCF: Cycle: 141   G: -2193.764399526280613   dG: +1.520e-04   |Residual|: 1.021e-03   |deigs|: 1.443e-04  t[s]:  10915.01
	Linear fluid (dielectric constant: 78.4, screening length: 5.74355 Bohr) occupying 0.726691 of unit cell:	Completed after 16 iterations at t[s]:  10917.81
	FillingsUpdate:  mu: -0.244750400  nElectrons: 517.095751
	Linear fluid (dielectric constant: 78.4, screening length: 5.74355 Bohr) occupying 0.726704 of unit cell:	Completed after 9 iterations at t[s]:  10988.57
SCF: Cycle: 142   G: -2193.764550243767189   dG: -1.507e-04   |Residual|: 2.474e-04   |deigs|: 1.105e-04  t[s]:  10990.38
	Linear fluid (dielectric constant: 78.4, screening length: 5.74355 Bohr) occupying 0.726692 of unit cell:	Completed after 9 iterations at t[s]:  10992.09
	FillingsUpdate:  mu: -0.244750400  nElectrons: 517.102451
	Linear fluid (dielectric constant: 78.4, screening length: 5.74355 Bohr) occupying 0.726705 of unit cell:	Completed after 8 iterations at t[s]:  11061.37
SCF: Cycle: 143   G: -2193.764552123062003   dG: -1.879e-06   |Residual|: 1.520e-04   |deigs|: 1.253e-05  t[s]:  11063.05
	Linear fluid (dielectric constant: 78.4, screening length: 5.74355 Bohr) occupying 0.726691 of unit cell:	Completed after 8 iterations at t[s]:  11064.75
	FillingsUpdate:  mu: -0.244750400  nElectrons: 517.111156
	Linear fluid (dielectric constant: 78.4, screening length: 5.74355 Bohr) occupying 0.726705 of unit cell:	Completed after 5 iterations at t[s]:  11133.65
SCF: Cycle: 144   G: -2193.764553800479007   dG: -1.677e-06   |Residual|: 9.350e-05   |deigs|: 2.166e-05  t[s]:  11135.57
	Linear fluid (dielectric constant: 78.4, screening length: 5.74355 Bohr) occupying 0.726692 of unit cell:	Completed after 3 iterations at t[s]:  11136.66
	FillingsUpdate:  mu: -0.244750400  nElectrons: 517.064035
	Linear fluid (dielectric constant: 78.4, screening length: 5.74355 Bohr) occupying 0.726703 of unit cell:	Completed after 13 iterations at t[s]:  11206.74
SCF: Cycle: 145   G: -2193.764489504636913   dG: +6.430e-05   |Residual|: 6.491e-04   |deigs|: 9.286e-05  t[s]:  11208.31
	Linear fluid (dielectric constant: 78.4, screening length: 5.74355 Bohr) occupying 0.726692 of unit cell:	Completed after 14 iterations at t[s]:  11210.59
	FillingsUpdate:  mu: -0.244750400  nElectrons: 517.096294
	Linear fluid (dielectric constant: 78.4, screening length: 5.74355 Bohr) occupying 0.726704 of unit cell:	Completed after 10 iterations at t[s]:  11281.58
SCF: Cycle: 146   G: -2193.764549729282407   dG: -6.022e-05   |Residual|: 2.119e-04   |deigs|: 6.292e-05  t[s]:  11283.18
	Linear fluid (dielectric constant: 78.4, screening length: 5.74355 Bohr) occupying 0.726693 of unit cell:	Completed after 10 iterations at t[s]:  11285.01
	FillingsUpdate:  mu: -0.244750400  nElectrons: 517.101050
	Linear fluid (dielectric constant: 78.4, screening length: 5.74355 Bohr) occupying 0.726705 of unit cell:	Completed after 8 iterations at t[s]:  11355.03
SCF: Cycle: 147   G: -2193.764551902891526   dG: -2.174e-06   |Residual|: 1.358e-04   |deigs|: 8.822e-06  t[s]:  11357.29
	Linear fluid (dielectric constant: 78.4, screening length: 5.74355 Bohr) occupying 0.726693 of unit cell:	Completed after 9 iterations at t[s]:  11359.07
	FillingsUpdate:  mu: -0.244750400  nElectrons: 517.102558
	Linear fluid (dielectric constant: 78.4, screening length: 5.74355 Bohr) occupying 0.726704 of unit cell:	Completed after 5 iterations at t[s]:  11428.95
SCF: Cycle: 148   G: -2193.764553485078068   dG: -1.582e-06   |Residual|: 1.135e-04   |deigs|: 7.107e-06  t[s]:  11430.69
	Linear fluid (dielectric constant: 78.4, screening length: 5.74355 Bohr) occupying 0.726694 of unit cell:	Completed after 3 iterations at t[s]:  11431.71
	FillingsUpdate:  mu: -0.244750400  nElectrons: 517.146004
	Linear fluid (dielectric constant: 78.4, screening length: 5.74355 Bohr) occupying 0.726707 of unit cell:	Completed after 13 iterations at t[s]:  11508.06
SCF: Cycle: 149   G: -2193.764472595627467   dG: +8.089e-05   |Residual|: 6.738e-04   |deigs|: 9.626e-05  t[s]:  11509.95
	Linear fluid (dielectric constant: 78.4, screening length: 5.74355 Bohr) occupying 0.726695 of unit cell:	Completed after 14 iterations at t[s]:  11512.23
	FillingsUpdate:  mu: -0.244750400  nElectrons: 517.085225
	Linear fluid (dielectric constant: 78.4, screening length: 5.74355 Bohr) occupying 0.726703 of unit cell:	Completed after 11 iterations at t[s]:  11582.15
SCF: Cycle: 150   G: -2193.764542365631769   dG: -6.977e-05   |Residual|: 4.255e-04   |deigs|: 1.243e-04  t[s]:  11583.89
	Linear fluid (dielectric constant: 78.4, screening length: 5.74355 Bohr) occupying 0.726695 of unit cell:	Completed after 11 iterations at t[s]:  11585.84
	FillingsUpdate:  mu: -0.244750400  nElectrons: 517.087529
	Linear fluid (dielectric constant: 78.4, screening length: 5.74355 Bohr) occupying 0.726705 of unit cell:	Completed after 12 iterations at t[s]:  11656.06
SCF: Cycle: 151   G: -2193.764539318280640   dG: +3.047e-06   |Residual|: 3.155e-04   |deigs|: 1.183e-05  t[s]:  11657.77
	Linear fluid (dielectric constant: 78.4, screening length: 5.74355 Bohr) occupying 0.726697 of unit cell:	Completed after 12 iterations at t[s]:  11659.75
	FillingsUpdate:  mu: -0.244750400  nElectrons: 517.090776
	Linear fluid (dielectric constant: 78.4, screening length: 5.74355 Bohr) occupying 0.726704 of unit cell:	Completed after 11 iterations at t[s]:  11749.72
SCF: Cycle: 152   G: -2193.764543822854193   dG: -4.505e-06   |Residual|: 2.775e-04   |deigs|: 7.685e-06  t[s]:  11751.38
	Linear fluid (dielectric constant: 78.4, screening length: 5.74355 Bohr) occupying 0.726696 of unit cell:	Completed after 11 iterations at t[s]:  11753.24
	FillingsUpdate:  mu: -0.244750400  nElectrons: 517.094684
	Linear fluid (dielectric constant: 78.4, screening length: 5.74355 Bohr) occupying 0.726705 of unit cell:	Completed after 10 iterations at t[s]:  11824.11
SCF: Cycle: 153   G: -2193.764547465299074   dG: -3.642e-06   |Residual|: 2.152e-04   |deigs|: 7.473e-06  t[s]:  11825.91
	Linear fluid (dielectric constant: 78.4, screening length: 5.74355 Bohr) occupying 0.726696 of unit cell:	Completed after 10 iterations at t[s]:  11827.80
	FillingsUpdate:  mu: -0.244750400  nElectrons: 517.098887
	Linear fluid (dielectric constant: 78.4, screening length: 5.74355 Bohr) occupying 0.726705 of unit cell:	Completed after 8 iterations at t[s]:  11897.65
SCF: Cycle: 154   G: -2193.764550785764641   dG: -3.320e-06   |Residual|: 1.561e-04   |deigs|: 8.487e-06  t[s]:  11899.44
	Linear fluid (dielectric constant: 78.4, screening length: 5.74355 Bohr) occupying 0.726697 of unit cell:	Completed after 9 iterations at t[s]:  11901.20
	FillingsUpdate:  mu: -0.244750400  nElectrons: 517.097015
	Linear fluid (dielectric constant: 78.4, screening length: 5.74355 Bohr) occupying 0.726705 of unit cell:	Completed after 9 iterations at t[s]:  11971.29
SCF: Cycle: 155   G: -2193.764550111870903   dG: +6.739e-07   |Residual|: 1.856e-04   |deigs|: 3.679e-06  t[s]:  11973.01
	Linear fluid (dielectric constant: 78.4, screening length: 5.74355 Bohr) occupying 0.726696 of unit cell:	Completed after 9 iterations at t[s]:  11974.80
	FillingsUpdate:  mu: -0.244750400  nElectrons: 517.099946
	Linear fluid (dielectric constant: 78.4, screening length: 5.74355 Bohr) occupying 0.726705 of unit cell:	Completed after 9 iterations at t[s]:  12044.84
SCF: Cycle: 156   G: -2193.764551259155269   dG: -1.147e-06   |Residual|: 1.503e-04   |deigs|: 5.093e-06  t[s]:  12046.56
	Linear fluid (dielectric constant: 78.4, screening length: 5.74355 Bohr) occupying 0.726692 of unit cell:	Completed after 9 iterations at t[s]:  12048.22
	FillingsUpdate:  mu: -0.244750400  nElectrons: 517.108589
	Linear fluid (dielectric constant: 78.4, screening length: 5.74355 Bohr) occupying 0.726704 of unit cell:	Completed after 0 iterations at t[s]:  12118.52
SCF: Cycle: 157   G: -2193.764554304189005   dG: -3.045e-06   |Residual|: 7.036e-05   |deigs|: 1.838e-05  t[s]:  12120.68
	Linear fluid (dielectric constant: 78.4, screening length: 5.74355 Bohr) occupying 0.726692 of unit cell:	Completed after 0 iterations at t[s]:  12121.28
	FillingsUpdate:  mu: -0.244750400  nElectrons: 517.106386
	Linear fluid (dielectric constant: 78.4, screening length: 5.74355 Bohr) occupying 0.726704 of unit cell:	Completed after 0 iterations at t[s]:  12190.03
SCF: Cycle: 158   G: -2193.764554304073044   dG: +1.160e-10   |Residual|: 6.108e-05   |deigs|: 3.941e-06  t[s]:  12192.24
	Linear fluid (dielectric constant: 78.4, screening length: 5.74355 Bohr) occupying 0.726691 of unit cell:	Completed after 0 iterations at t[s]:  12192.91
	FillingsUpdate:  mu: -0.244750400  nElectrons: 517.108993
	Linear fluid (dielectric constant: 78.4, screening length: 5.74355 Bohr) occupying 0.726704 of unit cell:	Completed after 0 iterations at t[s]:  12301.99
SCF: Cycle: 159   G: -2193.764554306471382   dG: -2.398e-09   |Residual|: 4.239e-05   |deigs|: 4.645e-06  t[s]:  12303.88
	Linear fluid (dielectric constant: 78.4, screening length: 5.74355 Bohr) occupying 0.726693 of unit cell:	Completed after 0 iterations at t[s]:  12304.49
	FillingsUpdate:  mu: -0.244750400  nElectrons: 517.108998
	Linear fluid (dielectric constant: 78.4, screening length: 5.74355 Bohr) occupying 0.726704 of unit cell:	Completed after 0 iterations at t[s]:  12371.71
SCF: Cycle: 160   G: -2193.764554308937022   dG: -2.466e-09   |Residual|: 4.130e-05   |deigs|: 9.440e-08  t[s]:  12373.29
SCF: Converged (|Delta E|<1.000000e-08 for 2 iters).


# Ionic positions in lattice coordinates:
ion Bi  -0.000000000000000   0.950811199995299   0.599917231134753 0
ion Bi   0.500000000000000   0.943833559572336   0.600243379435410 0
ion Bi  -0.000000000000000   0.066477825121473   0.401478651613225 0
ion Bi   0.500000000000000   0.064468799784486   0.403161647818031 0
ion Bi   0.249544355230703   0.800606788784997   0.358841476677280 0
ion Bi   0.750455644769297   0.800606788784997   0.358841476677280 0
ion Bi   0.254676563479866   0.341889323693043   0.438409804079917 0
ion Bi   0.745323436520134   0.341889323693043   0.438409804079917 0
ion Bi  -0.000000000000000   0.177016485012287   0.572173618090924 0
ion Bi   0.500000000000000   0.166430721271229   0.571531665515973 0
ion Bi  -0.000000000000000   0.624603169343086   0.489128516403632 0
ion Bi   0.500000000000000   0.620494791039581   0.488535956771267 0
ion Bi  -0.000000000000000   0.842879441535665   0.430695970810603 0
ion Bi   0.500000000000000   0.840569850680421   0.430767287999651 0
ion Bi  -0.000000000000000   0.526860322730652   0.312537384379226 0
ion Bi   0.500000000000000   0.529626043288920   0.312269249029064 0
ion Bi   0.247590593608177   0.119798116961669   0.471835097725017 0
ion Bi   0.752409406391824   0.119798116961669   0.471835097725017 0
ion Bi   0.250648463032025   0.669271054733876   0.559214377099631 0
ion Bi   0.749351536967976   0.669271054733876   0.559214377099631 0
ion Bi  -0.000000000000000   0.392860710409710   0.507929457609111 0
ion Bi   0.500000000000000   0.391259229335446   0.509500808937700 0
ion Bi   0.249000344553670   0.893882360755171   0.530782890907433 0
ion Bi   0.750999655446330   0.893882360755171   0.530782890907433 0
ion Bi   0.258952685828874   0.210433961542309   0.646712082104776 0
ion Bi   0.741047314171126   0.210433961542309   0.646712082104776 0
ion Bi   0.225185405938936   0.423476925560564   0.607672134099761 0
ion Bi   0.774814594061064   0.423476925560564   0.607672134099761 0
ion Bi   0.250309752466177   0.577126659486277   0.384139919952052 0
ion Bi   0.749690247533823   0.577126659486277   0.384139919952052 0
ion Bi  -0.000000000000000   0.482812002099492   0.684954583411206 0
ion I  -0.000000000000000   0.280744538029175   0.736090034554661 0
ion I   0.500000000000000   0.241712885501255   0.730149123431766 0
ion I  -0.000000000000000   0.736337234528485   0.266610158421884 0
ion I   0.500000000000000   0.737756640383070   0.266611810556820 0
ion I  -0.000000000000000   0.298045538063411   0.340358947720374 0
ion I   0.500000000000000   0.299689709168692   0.343107607851231 0
ion I  -0.000000000000000   0.715189508198123   0.658992588014831 0
ion I   0.500000000000000   0.518948741871891   0.659201034196907 0


# Forces in Lattice coordinates:
force Bi   0.000000000000000  -0.119389781526303   0.261105316834533 0
force Bi   0.000000000000000   0.013209575690342   0.159522110101614 0
force Bi   0.000000000000000   0.088081282520245  -0.220513102861307 0
force Bi   0.000000000000000   0.097546446509166  -0.181418203161158 0
force Bi   0.003380967784119  -0.038423066923276  -0.539566786214303 0
force Bi  -0.003380967784119  -0.038423066923276  -0.539566786214303 0
force Bi   0.000837155151258  -0.009555354112749  -0.344887006503312 0
force Bi  -0.000837155151258  -0.009555354112749  -0.344887006503312 0
force Bi   0.000000000000000  -0.038786830978762  -0.145283210416298 0
force Bi   0.000000000000000  -0.022957421654742  -0.175635610799151 0
force Bi   0.000000000000000  -0.010561824055886  -0.139383919932987 0
force Bi   0.000000000000000  -0.034108173837835  -0.212391845259108 0
force Bi   0.000000000000000   0.030455822854893   0.143090576659342 0
force Bi   0.000000000000000   0.022540194697827   0.143116989785511 0
force Bi   0.000000000000000   0.037259050326101  -0.341395425766935 0
force Bi   0.000000000000000   0.042508126365247  -0.382649081710340 0
force Bi  -0.003286557823865  -0.027913895066647   0.118257072680299 0
force Bi   0.003286557823865  -0.027913895066647   0.118257072680299 0
force Bi  -0.040874643039973   0.000139070017740   0.351761983281321 0
force Bi   0.040874643039973   0.000139070017740   0.351761983281321 0
force Bi   0.000000000000000  -0.001004648225532   0.073537759780141 0
force Bi   0.000000000000000  -0.001015320270856   0.197552599870704 0
force Bi   0.001779516741855   0.009532742421448  -0.102019026738604 0
force Bi  -0.001779516741855   0.009532742421448  -0.102019026738604 0
force Bi   0.017217299657005  -0.021983016019508   0.675485564370204 0
force Bi  -0.017217299657005  -0.021983016019508   0.675485564370204 0
force Bi   0.072603133638061   0.079725147207030  -0.016634191455958 0
force Bi  -0.072603133638061   0.079725147207030  -0.016634191455958 0
force Bi  -0.002016568125287  -0.018294493921817   0.103841266735379 0
force Bi   0.002016568125287  -0.018294493921817   0.103841266735379 0
force Bi   0.000000000000000   0.056460778346247   0.540618926307067 0
force I   0.000000000000000   0.023109379246227  -0.393125153426382 0
force I   0.000000000000000   0.024718060580482  -0.455464371683438 0
force I   0.000000000000000  -0.059113847744553   0.379505356371408 0
force I   0.000000000000000  -0.054715969635396   0.382283505261606 0
force I   0.000000000000000   0.020149030373997   0.341790111527165 0
force I   0.000000000000000   0.002760287651649   0.339698475075364 0
force I   0.000000000000000  -0.035662951362954  -0.454888135941510 0
force I   0.000000000000000  -0.090280524122121  -0.202967277903449 0

# Energy components:
   A_diel =       -0.5736950846440489
   Eewald =    21934.2248737458830874
       EH =    23709.2136310980095004
     Eloc =   -48559.9353709375645849
      Enl =      733.7823173757974473
      Exc =    -1193.9513632241105370
 Exc_core =      813.2911255494694842
       KE =      243.6358831534279830
  MuShift =        0.0445955244187423
-------------------------------------
     Etot =    -2320.2680027993092153
       TS =        0.0591856115442194
-------------------------------------
        F =    -2320.3271884108535232
      muN =     -126.5626341019163448
-------------------------------------
        G =    -2193.7645543089370221

IonicMinimize: Iter:   0  G: -2193.764554308937022  |grad|_K:  0.000e+00  t[s]:  12385.66
IonicMinimize: Converged (|grad|_K<1.000000e-04).

#--- Lowdin population analysis ---
# oxidation-state Bi +0.350 +0.424 +0.333 +0.331 +0.381 +0.381 +0.237 +0.237 -0.060 -0.045 +0.067 +0.027 -0.034 -0.032 +0.614 +0.614 +0.024 +0.024 +0.184 +0.184 -0.033 +0.005 +0.028 +0.028 +0.394 +0.394 +0.143 +0.143 -0.049 -0.049 +0.619
# oxidation-state I -0.041 -0.044 -0.045 -0.037 -0.169 -0.147 -0.157 +0.003


Dumping 'NbTe2.fillings' ... done
Dumping 'NbTe2.wfns' ... done
Dumping 'NbTe2.fluidState' ... done
Dumping 'NbTe2.eigenvals' ... done
End date and time: Fri Jul 10 10:18:54 2020  (Duration: 0-3:26:35.53)
Done!
