
*************** JDFTx 1.5.0  ***************

Start date and time: Fri Jul 17 06:53:05 2020
Executable jdftx_gpu with command-line: -i Charged.in -o Charged.out
Running on hosts (process indices):  amax (0-5)
Divided in process groups (process indices):  0 (0)  1 (1)  2 (2)  3 (3)  4 (4)  5 (5)
gpuInit: Found compatible cuda device 0 'Tesla K80'
gpuInit: Found compatible cuda device 1 'Tesla K80'
gpuInit: Found compatible cuda device 2 'Tesla K80'
gpuInit: Found compatible cuda device 3 'Tesla K80'
gpuInit: Found compatible cuda device 4 'Tesla K80'
gpuInit: Found compatible cuda device 5 'Tesla K80'
gpuInit: Selected device 0
Resource initialization completed at t[s]:     17.59
Run totals: 6 processes, 24 threads, 6 GPUs


Input parsed successfully to the following command list (including defaults):

basis kpoint-dependent
cache-projectors no
coords-type Lattice
core-overlap-check none
coulomb-interaction Slab 001
coulomb-truncation-embed 0 0 0.5
davidson-band-ratio 1.1
dump End State
dump-name NbTe2.$VAR
elec-cutoff 20 100
elec-eigen-algo Davidson
elec-ex-corr gga-PBE
elec-smearing Gauss 0.0073499
electronic-minimize  \
	dirUpdateScheme      FletcherReeves \
	linminMethod         DirUpdateRecommended \
	nIterations          500 \
	history              15 \
	knormThreshold       0 \
	energyDiffThreshold  1e-08 \
	nEnergyDiff          2 \
	alphaTstart          1 \
	alphaTmin            1e-10 \
	updateTestStepSize   yes \
	alphaTreduceFactor   0.1 \
	alphaTincreaseFactor 3 \
	nAlphaAdjustMax      3 \
	wolfeEnergy          0.0001 \
	wolfeGradient        0.9 \
	fdTest               no
exchange-regularization WignerSeitzTruncated
fluid LinearPCM 298.000000 1.013250
fluid-anion F- 1 MeanFieldLJ \
	epsBulk 1 \
	pMol 0 \
	epsInf 1 \
	Pvap 0 \
	sigmaBulk 0 \
	Rvdw 2.24877 \
	Res 0 \
	tauNuc 343133
fluid-cation Na+ 1 MeanFieldLJ \
	epsBulk 1 \
	pMol 0 \
	epsInf 1 \
	Pvap 0 \
	sigmaBulk 0 \
	Rvdw 2.19208 \
	Res 0 \
	tauNuc 343133
fluid-ex-corr lda-TF lda-PZ
fluid-gummel-loop 10 1.000000e-05
fluid-minimize  \
	dirUpdateScheme      PolakRibiere \
	linminMethod         DirUpdateRecommended \
	nIterations          400 \
	history              15 \
	knormThreshold       1e-11 \
	energyDiffThreshold  0 \
	nEnergyDiff          2 \
	alphaTstart          1 \
	alphaTmin            1e-10 \
	updateTestStepSize   yes \
	alphaTreduceFactor   0.1 \
	alphaTincreaseFactor 3 \
	nAlphaAdjustMax      6 \
	wolfeEnergy          0.0001 \
	wolfeGradient        0.9 \
	fdTest               no
fluid-solvent H2O 55.338 ScalarEOS \
	epsBulk 78.4 \
	pMol 0.92466 \
	epsInf 1.77 \
	Pvap 1.06736e-10 \
	sigmaBulk 4.62e-05 \
	Rvdw 2.61727 \
	Res 1.42 \
	tauNuc 343133 \
	poleEl 15 7 1
forces-output-coords Positions
initial-state NbTe2.$VAR
ion Cu   0.346383343374864   0.255519251369701   0.525792997169667 0
ion Cu   0.096383335374864   0.494480748630299   0.525792997169667 0
ion Cu   0.153616672625137   0.244480748630298   0.474207002830333 0
ion Cu   0.403616672625137   0.005519251369702   0.474207002830333 0
ion Cu   0.846383311374862   0.255519251369701   0.525792997169667 0
ion Cu   0.596383327374863   0.494480748630299   0.525792997169667 0
ion Cu   0.653616656625135   0.244480748630298   0.474207002830333 0
ion Cu   0.903616640625134   0.005519251369702   0.474207002830333 0
ion Cu   0.346383343374864   0.755519277369704   0.525792997169667 0
ion Cu   0.096383335374864   0.994480748630299   0.525792997169667 0
ion Cu   0.153616672625137   0.744480722630296   0.474207002830333 0
ion Cu   0.403616672625137   0.505519251369701   0.474207002830333 0
ion Cu   0.846383311374862   0.755519277369704   0.525792997169667 0
ion Cu   0.596383327374863   0.994480748630299   0.525792997169667 0
ion Cu   0.653616656625135   0.744480722630296   0.474207002830333 0
ion Cu   0.903616640625134   0.505519251369701   0.474207002830333 0
ion Te   0.276798392254766   0.104323504222635   0.576228202758869 0
ion Te   0.223211608745234   0.395676469777362   0.423771797241131 0
ion Te   0.473201623745236   0.354323530222638   0.423771797241131 0
ion Te   0.026788395254759   0.145676495777365   0.576228202758869 0
ion Te   0.776788375254764   0.104323504222635   0.576228202758869 0
ion Te   0.723211592745240   0.395676469777362   0.423771797241131 0
ion Te   0.973201623745236   0.354323530222638   0.423771797241131 0
ion Te   0.526788391254766   0.145676495777365   0.576228202758869 0
ion Te   0.276798392254766   0.604323479222637   0.576228202758869 0
ion Te   0.223211608745234   0.895676469777362   0.423771797241131 0
ion Te   0.473201623745236   0.854323504222636   0.423771797241131 0
ion Te   0.026788395254759   0.645676495777364   0.576228202758869 0
ion Te   0.776788375254764   0.604323479222637   0.576228202758869 0
ion Te   0.723211592745240   0.895676469777362   0.423771797241131 0
ion Te   0.973201623745236   0.854323504222636   0.423771797241131 0
ion Te   0.526788391254766   0.645676495777364   0.576228202758869 0
ion O   0.304541442485369   0.066573585917670   0.481919801904477 0
ion O   0.259842503130347   0.301095986497297   0.457849433595123 0
ion O   0.399636166526122   0.175027798347782   0.577736103561033 0
ion O   0.490157480869651   0.051095976497296   0.542150566404877 0
ion O   0.350363848473875   0.425027811347780   0.422263896438968 0
ion O   0.149636151526125   0.074972201652218   0.577736103561033 0
ion O   0.445458572514636   0.316573579917670   0.518080198095523 0
ion O   0.195458572514636   0.433426420082330   0.518080198095523 0
ion O   0.009842517130348   0.448904039502706   0.457849433595123 0
ion O   0.240157496869653   0.198904013502704   0.542150566404877 0
ion O   0.054541427485364   0.183426420082330   0.481919801904477 0
ion O   0.100363840473875   0.324972188652220   0.422263896438968 0
ion O   0.804541411485370   0.066573585917670   0.481919801904477 0
ion O   0.759842535130350   0.301095986497297   0.457849433595123 0
ion O   0.899636135526123   0.175027798347782   0.577736103561033 0
ion O   0.990157480869652   0.051095976497296   0.542150566404877 0
ion O   0.850363880473878   0.425027811347780   0.422263896438968 0
ion O   0.649636151526125   0.074972201652218   0.577736103561033 0
ion O   0.945458541514637   0.316573579917670   0.518080198095523 0
ion O   0.695458557514631   0.433426420082330   0.518080198095523 0
ion O   0.509842519130348   0.448904039502706   0.457849433595123 0
ion O   0.740157496869653   0.198904013502704   0.542150566404877 0
ion O   0.554541427485364   0.183426420082330   0.481919801904477 0
ion O   0.600363896473872   0.324972188652220   0.422263896438968 0
ion O   0.304541442485369   0.566573579917670   0.481919801904477 0
ion O   0.259842503130347   0.801095935497296   0.457849433595123 0
ion O   0.399636166526122   0.675027785347785   0.577736103561033 0
ion O   0.490157480869651   0.551095960497294   0.542150566404877 0
ion O   0.350363848473875   0.925027811347780   0.422263896438968 0
ion O   0.149636151526125   0.574972239652221   0.577736103561033 0
ion O   0.445458572514636   0.816573605917665   0.518080198095523 0
ion O   0.195458572514636   0.933426369082329   0.518080198095523 0
ion O   0.009842517130348   0.948904039502706   0.457849433595123 0
ion O   0.240157496869653   0.698904064502704   0.542150566404877 0
ion O   0.054541427485364   0.683426394082335   0.481919801904477 0
ion O   0.100363840473875   0.824972214652215   0.422263896438968 0
ion O   0.804541411485370   0.566573579917670   0.481919801904477 0
ion O   0.759842535130350   0.801095935497296   0.457849433595123 0
ion O   0.899636135526123   0.675027785347785   0.577736103561033 0
ion O   0.990157480869652   0.551095960497294   0.542150566404877 0
ion O   0.850363880473878   0.925027811347780   0.422263896438968 0
ion O   0.649636151526125   0.574972239652221   0.577736103561033 0
ion O   0.945458541514637   0.816573605917665   0.518080198095523 0
ion O   0.695458557514631   0.933426369082329   0.518080198095523 0
ion O   0.509842519130348   0.948904039502706   0.457849433595123 0
ion O   0.740157496869653   0.698904064502704   0.542150566404877 0
ion O   0.554541427485364   0.683426394082335   0.481919801904477 0
ion O   0.600363896473872   0.824972214652215   0.422263896438968 0
ion-species GBRV/$ID_pbe.uspp
ion-width Ecut
ionic-minimize  \
	dirUpdateScheme      L-BFGS \
	linminMethod         DirUpdateRecommended \
	nIterations          0 \
	history              15 \
	knormThreshold       0.0001 \
	energyDiffThreshold  1e-06 \
	nEnergyDiff          2 \
	alphaTstart          1 \
	alphaTmin            1e-10 \
	updateTestStepSize   yes \
	alphaTreduceFactor   0.1 \
	alphaTincreaseFactor 3 \
	nAlphaAdjustMax      3 \
	wolfeEnergy          0.0001 \
	wolfeGradient        0.9 \
	fdTest               no
kpoint   0.000000000000   0.000000000000   0.000000000000  1.00000000000000
kpoint-folding 3 3 1 
latt-move-scale 1 1 1
latt-scale 1 1 1 
lattice Triclinic 28.6071 35.3613 33.7454 90 90 90
lattice-minimize  \
	dirUpdateScheme      L-BFGS \
	linminMethod         DirUpdateRecommended \
	nIterations          0 \
	history              15 \
	knormThreshold       0 \
	energyDiffThreshold  1e-06 \
	nEnergyDiff          2 \
	alphaTstart          1 \
	alphaTmin            1e-10 \
	updateTestStepSize   yes \
	alphaTreduceFactor   0.1 \
	alphaTincreaseFactor 3 \
	nAlphaAdjustMax      3 \
	wolfeEnergy          0.0001 \
	wolfeGradient        0.9 \
	fdTest               no
lcao-params -1 1e-06 0.0073499
pcm-variant CANDLE
spintype no-spin
subspace-rotation-factor 1 yes
symmetries automatic
symmetry-threshold 0.0001
target-mu -0.171252 no




---------- Setting up symmetries ----------

Found 8 point-group symmetries of the bravais lattice
Found 16 space-group symmetries with basis
Applied RMS atom displacement 6.1462e-05 bohrs to make symmetries exact.

---------- Initializing the Grid ----------
R = 
[    28.6071          0          0  ]
[          0    35.3613          0  ]
[          0          0    33.7454  ]
unit cell volume = 34136.3
G =
[   0.219638          0          0  ]
[          0   0.177685          0  ]
[          0          0   0.186194  ]
Minimum fftbox size, Smin = [  132  160  152  ]
Chosen fftbox size, S = [  140  160  160  ]

---------- Initializing tighter grid for wavefunction operations ----------
R = 
[    28.6071          0          0  ]
[          0    35.3613          0  ]
[          0          0    33.7454  ]
unit cell volume = 34136.3
G =
[   0.219638          0          0  ]
[          0   0.177685          0  ]
[          0          0   0.186194  ]
Minimum fftbox size, Smin = [  116  144  136  ]
Chosen fftbox size, S = [  120  144  140  ]

---------- Exchange Correlation functional ----------
Initalized PBE GGA exchange.
Initalized PBE GGA correlation.

---------- Setting up pseudopotentials ----------
Width of ionic core gaussian charges (only for fluid interactions / plotting) set to 0.397384

Reading pseudopotential file '/home/guoxy/vasp/jdftx-1.5.0/build/pseudopotentials/GBRV/cu_pbe.uspp':
  Title: Cu.  Created by USPP 7.3.6 on 3-2-2014
  Reference state energy: -201.059491.  19 valence electrons in orbitals:
    |300>  occupation: 2  eigenvalue: -5.020764
    |310>  occupation: 6  eigenvalue: -3.445588
    |320>  occupation: 8  eigenvalue: -0.925168
    |400>  occupation: 2  eigenvalue: -0.567638
    |410>  occupation: 0  eigenvalue: -0.326154
  lMax: 2  lLocal: 3  QijEcut: 6
  6 projectors sampled on a log grid with 613 points:
    l: 0  eig: -5.020767  rCut: 1.4
    l: 0  eig: -0.567640  rCut: 1.4
    l: 1  eig: -3.445589  rCut: 1.55
    l: 1  eig: -0.326157  rCut: 1.55
    l: 2  eig: -0.925170  rCut: 1.5
    l: 2  eig: 1.500000  rCut: 1.5
  Partial core density with radius 0.8
  Transforming core density to a uniform radial grid of dG=0.02 with 1290 points.
  Transforming local potential to a uniform radial grid of dG=0.02 with 1290 points.
  Transforming nonlocal projectors to a uniform radial grid of dG=0.02 with 432 points.
  Transforming density augmentations to a uniform radial grid of dG=0.02 with 1290 points.
  Transforming atomic orbitals to a uniform radial grid of dG=0.02 with 432 points.
  Core radius for overlap checks: 1.55 bohrs.

Reading pseudopotential file '/home/guoxy/vasp/jdftx-1.5.0/build/pseudopotentials/GBRV/te_pbe.uspp':
  Title: Te.  Created by USPP 7.3.6 on 14-9-2013
  Reference state energy: -13.134220.  6 valence electrons in orbitals:
    |500>  occupation: 2  eigenvalue: -0.555231
    |510>  occupation: 4  eigenvalue: -0.218781
  lMax: 2  lLocal: 2  QijEcut: 5
  5 projectors sampled on a log grid with 723 points:
    l: 0  eig: -0.555229  rCut: 2.1
    l: 0  eig: 1.000000  rCut: 2.1
    l: 1  eig: -0.218780  rCut: 2.1
    l: 1  eig: 1.000000  rCut: 2.1
    l: 2  eig: 1.000000  rCut: 2.6
  Partial core density with radius 1.8
  Transforming core density to a uniform radial grid of dG=0.02 with 1290 points.
  Transforming local potential to a uniform radial grid of dG=0.02 with 1290 points.
  Transforming nonlocal projectors to a uniform radial grid of dG=0.02 with 432 points.
  Transforming density augmentations to a uniform radial grid of dG=0.02 with 1290 points.
  Transforming atomic orbitals to a uniform radial grid of dG=0.02 with 432 points.
  Core radius for overlap checks: 2.60 bohrs.

Reading pseudopotential file '/home/guoxy/vasp/jdftx-1.5.0/build/pseudopotentials/GBRV/o_pbe.uspp':
  Title: O.  Created by USPP 7.3.6 on 3-2-2014
  Reference state energy: -15.894388.  6 valence electrons in orbitals:
    |200>  occupation: 2  eigenvalue: -0.878823
    |210>  occupation: 4  eigenvalue: -0.332131
  lMax: 2  lLocal: 2  QijEcut: 6
  5 projectors sampled on a log grid with 511 points:
    l: 0  eig: -0.878823  rCut: 1.25
    l: 0  eig: 0.000000  rCut: 1.25
    l: 1  eig: -0.332132  rCut: 1.25
    l: 1  eig: 0.000000  rCut: 1.25
    l: 2  eig: 1.000000  rCut: 1.25
  Partial core density with radius 0.7
  Transforming core density to a uniform radial grid of dG=0.02 with 1290 points.
  Transforming local potential to a uniform radial grid of dG=0.02 with 1290 points.
  Transforming nonlocal projectors to a uniform radial grid of dG=0.02 with 432 points.
  Transforming density augmentations to a uniform radial grid of dG=0.02 with 1290 points.
  Transforming atomic orbitals to a uniform radial grid of dG=0.02 with 432 points.
  Core radius for overlap checks: 1.25 bohrs.

Initialized 3 species with 80 total atoms.

Folded 1 k-points by 3x3x1 to 9 k-points.

---------- Setting up k-points, bands, fillings ----------
Reduced to 4 k-points under symmetry. 
Computing the number of bands and number of electrons
Reading initial fillings from file NbTe2.fillings.
nElectrons: 688.000000   nBands: 464   nStates: 4

----- Setting up reduced wavefunction bases (one per k-point) -----
average nbasis = 145806.556 , ideal nbasis = 145832.736

---------- Setting up coulomb interaction ----------
Fluid mode embedding: using embedded box, but periodic Coulomb kernel.
(Fluid response is responsible for (approximate) separation between periodic images.)
Setting up double-sized grid for truncated Coulomb potentials:
R = 
[    28.6071          0          0  ]
[          0    35.3613          0  ]
[          0          0    67.4908  ]
unit cell volume = 68272.5
G =
[   0.219638          0          0  ]
[          0   0.177685          0  ]
[          0          0  0.0930969  ]
Chosen fftbox size, S = [  140  160  320  ]
Integer grid location selected as the embedding center:
   Grid: [  0  0  80  ]
   Lattice: [  0  0  0.5  ]
   Cartesian: [  0  0  16.8727  ]
Constructing Wigner-Seitz cell: 6 faces (6 quadrilaterals, 0 hexagons)
Range-separation parameter for embedded mesh potentials due to point charges: 0.593081 bohrs.

Initializing van der Waals corrections
	NOTE: vdW corrections apply only for interactions with fluid.
	Cu:  C6:  187.33 Eh-a0^6  R0: 2.952 a0
	Te:  C6:  550.54 Eh-a0^6  R0: 3.575 a0
	 O:  C6:   12.14 Eh-a0^6  R0: 2.536 a0

---------- Setting up ewald sum ----------
Optimum gaussian width for ewald sums = 7.854956 bohr.
Real space sum over 567 unit cells with max indices [  4  4  3  ]
Reciprocal space sum over 7395 terms with max indices [  7  8  14  ]

---------- Allocating electronic variables ----------
Initializing wave functions:  reading from 'NbTe2.wfns'
----- createFluidSolver() ----- (Fluid-side solver setup)
   Initializing fluid molecule 'H2O'
     Initializing site 'O'
       Electron density: proportional to exp(-r/0.36935)*erfc((r-0.51523)/0.36823) with norm 6.826
       Charge density: gaussian nuclear width 0.478731 with net site charge 0.826
       Polarizability: cuspless exponential with width 0.32 and norm 3.73
       Hard sphere radius: 2.57003 bohrs
       Positions in reference frame:
         [ +0.000000 +0.000000 +0.000000 ]
     Initializing site 'H'
       Electron density: proportional to exp(-r/0.34641)*erfc((r-0)/0.390882) with norm 0.587
       Charge density: gaussian nuclear width 0.377945 with net site charge -0.413
       Polarizability: cuspless exponential with width 0.39 and norm 3.3
       Positions in reference frame:
         [ +0.000000 -1.441945 +1.122523 ]
         [ +0.000000 +1.441945 +1.122523 ]
     Net charge: 0   dipole magnitude: 0.927204
     Initializing spherical shell mfKernel with radius 2.61727 Bohr
     deltaS corrections:
       site 'O': -7.54299
       site 'H': -6.83917
   Initializing fluid molecule 'Na+'
     Initializing site 'Na'
       Electron density: proportional to exp(-r/0.19682)*erfc((r-0.71491)/0.41314) with norm 8.1383
       Charge density: gaussian nuclear width 0.365347 with net site charge -1
       Hard sphere radius: 1.86327 bohrs
       Positions in reference frame:
         [ +0.000000 +0.000000 +0.000000 ]
     Net charge: -1   dipole magnitude: 0
     Initializing gaussian mfKernel with width: 1.55004 Bohr
     deltaS corrections:
       site 'Na': -22.3555
   Initializing fluid molecule 'F-'
     Initializing site 'F'
       Electron density: proportional to exp(-r/0.38886)*erfc((r-0)/0.438782) with norm 8
       Charge density: gaussian nuclear width 0.374796 with net site charge 1
       Hard sphere radius: 2.39995 bohrs
       Positions in reference frame:
         [ +0.000000 +0.000000 +0.000000 ]
     Net charge: 1   dipole magnitude: 0
     Initializing gaussian mfKernel with width: 1.59012 Bohr
     deltaS corrections:
       site 'F': -9.04335

Correction to mu due to finite nuclear width = -0.00999866
   Cavity determined by nc: 0.00142 and sigma: 0.707107
   Nonlocal vdW cavity from gaussian model electron density with norm = 8 and sigma = 0.993594 bohr
   Charge asymmetry in cavity with sensitivity pCavity = 36.5 e-bohr/Eh
   Electrostatic cavity expanded by eta = 1.46 bohrs
   Weighted density cavitation model constrained by Nbulk: 0.0049383 bohr^-3, Pvap: 3.14029 kPa, Rvdw: 2.61727 bohr and sigmaBulk: 4.62e-05 Eh/bohr^2 at T: 298 K.
   Weighted density dispersion model using vdW pair potentials with single solvent site with sqrtC6eff: 0.77 SI.
Reading fluid state from 'NbTe2.fluidState'


---- Citations for features of the code used in this run ----

   Software package:
      R. Sundararaman, K. Letchworth-Weaver, K.A. Schwarz, D. Gunceler, Y. Ozhabes and T.A. Arias, 'JDFTx: software for joint density-functional theory', SoftwareX 6, 278 (2017)

   gga-PBE exchange-correlation functional:
      J.P. Perdew, K. Burke and M. Ernzerhof, Phys. Rev. Lett. 77, 3865 (1996)

   Pseudopotentials:
      KF Garrity, JW Bennett, KM Rabe and D Vanderbilt, Comput. Mater. Sci. 81, 446 (2014)

   Truncated Coulomb potentials:
      R. Sundararaman and T.A. Arias, Phys. Rev. B 87, 165122 (2013)

   Van der Waals correction pair-potentials:
      S. Grimme, J. Comput. Chem. 27, 1787 (2006)

   Charge-asymmetric nonlocally-determined local-electric (CANDLE) solvation model:
      R. Sundararaman and W.A. Goddard III, J. Chem. Phys. 142, 064107 (2015)

   Total energy minimization with Auxiliary Hamiltonian:
      C. Freysoldt, S. Boeck, and J. Neugebauer, Phys. Rev. B 79, 241103(R) (2009)

   Grand-canonical (fixed-potential) DFT:
      R. Sundararaman, W. A. Goddard III and T. A. Arias, J. Chem. Phys. 146, 114104 (2017)

This list may not be complete. Please suggest additional citations or
report any other bugs at https://github.com/shankar1729/jdftx/issues

Initialization completed successfully at t[s]:     64.52

Shifting auxilliary hamiltonian by 0.002768 to set nElectrons=688.000000
	Linear fluid (dielectric constant: 78.4, screening length: 5.74355 Bohr) occupying 0.801549 of unit cell:	Completed after 0 iterations at t[s]:     82.28

-------- Electronic minimization -----------
	Linear fluid (dielectric constant: 78.4, screening length: 5.74355 Bohr) occupying 0.801549 of unit cell:	Completed after 0 iterations at t[s]:     94.91
	FillingsUpdate:  mu: -0.171251800  nElectrons: 688.000000
ElecMinimize: Iter:   0  G: -4014.867239207190778  |grad|_K:  3.034e-06  alpha:  1.000e+00
	Linear fluid (dielectric constant: 78.4, screening length: 5.74355 Bohr) occupying 0.806403 of unit cell:	Completed after 16 iterations at t[s]:    129.25
	Linear fluid (dielectric constant: 78.4, screening length: 5.74355 Bohr) occupying 0.801692 of unit cell:	Completed after 16 iterations at t[s]:    145.50
	FillingsUpdate:  mu: -0.171251800  nElectrons: 688.108883
	SubspaceRotationAdjust: set factor to 0.803
ElecMinimize: Iter:   1  G: -4014.867377173290606  |grad|_K:  1.826e-06  alpha:  6.038e-02  linmin:  3.397e-04  t[s]:    163.61
	Linear fluid (dielectric constant: 78.4, screening length: 5.74355 Bohr) occupying 0.801723 of unit cell:	Completed after 4 iterations at t[s]:    178.14
	Linear fluid (dielectric constant: 78.4, screening length: 5.74355 Bohr) occupying 0.801756 of unit cell:	Completed after 8 iterations at t[s]:    193.95
	FillingsUpdate:  mu: -0.171251800  nElectrons: 688.170565
	SubspaceRotationAdjust: set factor to 1.25
ElecMinimize: Iter:   2  G: -4014.867477750889520  |grad|_K:  1.024e-06  alpha:  1.219e-01  linmin: -7.702e-06  t[s]:    211.88
	Linear fluid (dielectric constant: 78.4, screening length: 5.74355 Bohr) occupying 0.801770 of unit cell:	Completed after 4 iterations at t[s]:    226.34
ElecMinimize: 	Predicted alpha/alphaT>3.000000, increasing alphaT to 3.655999e-01.
	Linear fluid (dielectric constant: 78.4, screening length: 5.74355 Bohr) occupying 0.801801 of unit cell:	Completed after 8 iterations at t[s]:    241.54
	Linear fluid (dielectric constant: 78.4, screening length: 5.74355 Bohr) occupying 0.801809 of unit cell:	Completed after 2 iterations at t[s]:    255.45
	FillingsUpdate:  mu: -0.171251800  nElectrons: 688.264511
	SubspaceRotationAdjust: set factor to 1.18
ElecMinimize: Iter:   3  G: -4014.867599246028931  |grad|_K:  1.400e-06  alpha:  4.251e-01  linmin: -3.025e-05  t[s]:    271.99
	Linear fluid (dielectric constant: 78.4, screening length: 5.74355 Bohr) occupying 0.801465 of unit cell:	Completed after 11 iterations at t[s]:    287.41
	Linear fluid (dielectric constant: 78.4, screening length: 5.74355 Bohr) occupying 0.801768 of unit cell:	Completed after 12 iterations at t[s]:    302.59
	FillingsUpdate:  mu: -0.171251800  nElectrons: 688.257647
	SubspaceRotationAdjust: set factor to 0.661
ElecMinimize: Iter:   4  G: -4014.867628060802417  |grad|_K:  6.657e-07  alpha:  5.082e-02  linmin: -7.046e-05  t[s]:    319.76
	Linear fluid (dielectric constant: 78.4, screening length: 5.74355 Bohr) occupying 0.801776 of unit cell:	Completed after 2 iterations at t[s]:    334.77
ElecMinimize: 	Predicted alpha/alphaT>3.000000, increasing alphaT to 1.524657e-01.
	Linear fluid (dielectric constant: 78.4, screening length: 5.74355 Bohr) occupying 0.801793 of unit cell:	Completed after 6 iterations at t[s]:    349.27
	Linear fluid (dielectric constant: 78.4, screening length: 5.74355 Bohr) occupying 0.801811 of unit cell:	Completed after 6 iterations at t[s]:    363.99
	FillingsUpdate:  mu: -0.171251800  nElectrons: 688.317741
	SubspaceRotationAdjust: set factor to 0.477
ElecMinimize: Iter:   5  G: -4014.867659128302876  |grad|_K:  4.618e-07  alpha:  2.531e-01  linmin:  8.050e-07  t[s]:    382.14
	Linear fluid (dielectric constant: 78.4, screening length: 5.74355 Bohr) occupying 0.801784 of unit cell:	Completed after 3 iterations at t[s]:    397.89
	Linear fluid (dielectric constant: 78.4, screening length: 5.74355 Bohr) occupying 0.801783 of unit cell:	Completed after 0 iterations at t[s]:    410.40
	FillingsUpdate:  mu: -0.171251800  nElectrons: 688.326750
	SubspaceRotationAdjust: set factor to 0.583
ElecMinimize: Iter:   6  G: -4014.867674222115511  |grad|_K:  4.823e-07  alpha:  2.611e-01  linmin: -1.531e-05  t[s]:    424.47
	Linear fluid (dielectric constant: 78.4, screening length: 5.74355 Bohr) occupying 0.801712 of unit cell:	Completed after 6 iterations at t[s]:    440.56
	Linear fluid (dielectric constant: 78.4, screening length: 5.74355 Bohr) occupying 0.801749 of unit cell:	Completed after 3 iterations at t[s]:    456.88
	FillingsUpdate:  mu: -0.171251800  nElectrons: 688.322083
	SubspaceRotationAdjust: set factor to 0.394
ElecMinimize: Iter:   7  G: -4014.867682418538152  |grad|_K:  2.626e-07  alpha:  1.253e-01  linmin:  1.159e-04  t[s]:    472.42
	Linear fluid (dielectric constant: 78.4, screening length: 5.74355 Bohr) occupying 0.801755 of unit cell:	Completed after 3 iterations at t[s]:    489.86
	Linear fluid (dielectric constant: 78.4, screening length: 5.74355 Bohr) occupying 0.801756 of unit cell:	Completed after 0 iterations at t[s]:    504.66
	FillingsUpdate:  mu: -0.171251800  nElectrons: 688.332163
	SubspaceRotationAdjust: set factor to 0.403
ElecMinimize: Iter:   8  G: -4014.867685057357448  |grad|_K:  2.039e-07  alpha:  1.425e-01  linmin: -1.881e-04  t[s]:    521.71
	Linear fluid (dielectric constant: 78.4, screening length: 5.74355 Bohr) occupying 0.801758 of unit cell:	Completed after 2 iterations at t[s]:    539.16
	Linear fluid (dielectric constant: 78.4, screening length: 5.74355 Bohr) occupying 0.801758 of unit cell:	Completed after 0 iterations at t[s]:    553.92
	FillingsUpdate:  mu: -0.171251800  nElectrons: 688.338340
	SubspaceRotationAdjust: set factor to 0.437
ElecMinimize: Iter:   9  G: -4014.867687126283727  |grad|_K:  1.331e-07  alpha:  1.519e-01  linmin: -1.967e-04  t[s]:    571.22
	Linear fluid (dielectric constant: 78.4, screening length: 5.74355 Bohr) occupying 0.801754 of unit cell:	Completed after 0 iterations at t[s]:    588.42
	Linear fluid (dielectric constant: 78.4, screening length: 5.74355 Bohr) occupying 0.801751 of unit cell:	Completed after 0 iterations at t[s]:    603.34
	FillingsUpdate:  mu: -0.171251800  nElectrons: 688.339136
	SubspaceRotationAdjust: set factor to 0.482
ElecMinimize: Iter:  10  G: -4014.867688661692682  |grad|_K:  1.506e-07  alpha:  2.547e-01  linmin: -6.028e-05  t[s]:    620.65
	Linear fluid (dielectric constant: 78.4, screening length: 5.74355 Bohr) occupying 0.801733 of unit cell:	Completed after 2 iterations at t[s]:    637.94
	Linear fluid (dielectric constant: 78.4, screening length: 5.74355 Bohr) occupying 0.801738 of unit cell:	Completed after 0 iterations at t[s]:    653.04
	FillingsUpdate:  mu: -0.171251800  nElectrons: 688.337292
	SubspaceRotationAdjust: set factor to 0.432
ElecMinimize: Iter:  11  G: -4014.867689746190081  |grad|_K:  1.408e-07  alpha:  1.785e-01  linmin: -2.995e-05  t[s]:    670.13
	Linear fluid (dielectric constant: 78.4, screening length: 5.74355 Bohr) occupying 0.801736 of unit cell:	Completed after 2 iterations at t[s]:    687.34
	Linear fluid (dielectric constant: 78.4, screening length: 5.74355 Bohr) occupying 0.801738 of unit cell:	Completed after 1 iterations at t[s]:    702.71
	FillingsUpdate:  mu: -0.171251800  nElectrons: 688.338595
	SubspaceRotationAdjust: set factor to 0.373
ElecMinimize: Iter:  12  G: -4014.867690168057834  |grad|_K:  1.134e-07  alpha:  7.032e-02  linmin:  1.065e-04  t[s]:    720.18
	Linear fluid (dielectric constant: 78.4, screening length: 5.74355 Bohr) occupying 0.801735 of unit cell:	Completed after 0 iterations at t[s]:    736.80
ElecMinimize: 	Predicted alpha/alphaT>3.000000, increasing alphaT to 2.109506e-01.
	Linear fluid (dielectric constant: 78.4, screening length: 5.74355 Bohr) occupying 0.801731 of unit cell:	Completed after 0 iterations at t[s]:    751.74
	Linear fluid (dielectric constant: 78.4, screening length: 5.74355 Bohr) occupying 0.801731 of unit cell:	Completed after 0 iterations at t[s]:    766.30
	FillingsUpdate:  mu: -0.171251800  nElectrons: 688.338347
	SubspaceRotationAdjust: set factor to 0.437
ElecMinimize: Iter:  13  G: -4014.867690639241118  |grad|_K:  1.089e-07  alpha:  2.063e-01  linmin: -1.707e-05  t[s]:    783.74
	Linear fluid (dielectric constant: 78.4, screening length: 5.74355 Bohr) occupying 0.801722 of unit cell:	Completed after 2 iterations at t[s]:    800.71
	Linear fluid (dielectric constant: 78.4, screening length: 5.74355 Bohr) occupying 0.801729 of unit cell:	Completed after 2 iterations at t[s]:    815.50
ElecMinimize: 	Step increased G by 1.139488e-07, reducing alpha to 5.238822e-03.
	Linear fluid (dielectric constant: 78.4, screening length: 5.74355 Bohr) occupying 0.801731 of unit cell:	Completed after 0 iterations at t[s]:    844.97
ElecMinimize: 	Step increased G by 5.005813e-08, reducing alpha to 5.238822e-04.
	Linear fluid (dielectric constant: 78.4, screening length: 5.74355 Bohr) occupying 0.801731 of unit cell:	Completed after 0 iterations at t[s]:    875.34
ElecMinimize: 	Step increased G by 4.802178e-08, reducing alpha to 5.238822e-05.
ElecMinimize: 	Step failed to reduce G after 3 attempts. Quitting step.
ElecMinimize: 	Undoing step.
	Linear fluid (dielectric constant: 78.4, screening length: 5.74355 Bohr) occupying 0.801731 of unit cell:	Completed after 0 iterations at t[s]:    904.92
ElecMinimize: 	Step failed: resetting search direction.
	FillingsUpdate:  mu: -0.171251800  nElectrons: 688.338341
	SubspaceRotationAdjust: set factor to 0.385
ElecMinimize: Iter:  14  G: -4014.867690591258452  |grad|_K:  1.176e-07  alpha:  5.239e-05
	Linear fluid (dielectric constant: 78.4, screening length: 5.74355 Bohr) occupying 0.801740 of unit cell:	Completed after 2 iterations at t[s]:    939.39
	Linear fluid (dielectric constant: 78.4, screening length: 5.74355 Bohr) occupying 0.801734 of unit cell:	Completed after 2 iterations at t[s]:    954.90
ElecMinimize: 	Step increased G by 1.308308e-09, reducing alpha to 5.840084e-03.
	Linear fluid (dielectric constant: 78.4, screening length: 5.74355 Bohr) occupying 0.801732 of unit cell:	Completed after 0 iterations at t[s]:    984.29
	FillingsUpdate:  mu: -0.171251800  nElectrons: 688.338467
	SubspaceRotationAdjust: set factor to 0.307
ElecMinimize: Iter:  15  G: -4014.867690664048041  |grad|_K:  1.132e-07  alpha:  5.840e-03  linmin:  5.869e-05  t[s]:   1001.95
	Linear fluid (dielectric constant: 78.4, screening length: 5.74355 Bohr) occupying 0.801732 of unit cell:	Completed after 0 iterations at t[s]:   1018.68
ElecMinimize: 	Predicted alpha/alphaT>3.000000, increasing alphaT to 1.752025e-02.
	Linear fluid (dielectric constant: 78.4, screening length: 5.74355 Bohr) occupying 0.801732 of unit cell:	Completed after 0 iterations at t[s]:   1033.09
ElecMinimize: 	Predicted alpha/alphaT>3.000000, increasing alphaT to 5.256076e-02.
	Linear fluid (dielectric constant: 78.4, screening length: 5.74355 Bohr) occupying 0.801732 of unit cell:	Completed after 0 iterations at t[s]:   1046.99
	Linear fluid (dielectric constant: 78.4, screening length: 5.74355 Bohr) occupying 0.801732 of unit cell:	Completed after 0 iterations at t[s]:   1061.38
	FillingsUpdate:  mu: -0.171251800  nElectrons: 688.338668
	SubspaceRotationAdjust: set factor to 0.402
ElecMinimize: Iter:  16  G: -4014.867690878950725  |grad|_K:  9.339e-08  alpha:  6.742e-02  linmin:  6.691e-10  t[s]:   1079.53
	Linear fluid (dielectric constant: 78.4, screening length: 5.74355 Bohr) occupying 0.801731 of unit cell:	Completed after 1 iterations at t[s]:   1095.02
	Linear fluid (dielectric constant: 78.4, screening length: 5.74355 Bohr) occupying 0.801732 of unit cell:	Completed after 0 iterations at t[s]:   1108.42
ElecMinimize: 	Step increased G by 1.175090e-07, reducing alpha to 2.046995e-03.
	Linear fluid (dielectric constant: 78.4, screening length: 5.74355 Bohr) occupying 0.801732 of unit cell:	Completed after 0 iterations at t[s]:   1138.07
ElecMinimize: 	Step increased G by 1.027220e-07, reducing alpha to 2.046995e-04.
	Linear fluid (dielectric constant: 78.4, screening length: 5.74355 Bohr) occupying 0.801732 of unit cell:	Completed after 0 iterations at t[s]:   1167.40
ElecMinimize: 	Step increased G by 1.018807e-07, reducing alpha to 2.046995e-05.
ElecMinimize: 	Step failed to reduce G after 3 attempts. Quitting step.
ElecMinimize: 	Undoing step.
	Linear fluid (dielectric constant: 78.4, screening length: 5.74355 Bohr) occupying 0.801732 of unit cell:	Completed after 0 iterations at t[s]:   1197.67
ElecMinimize: 	Step failed: resetting search direction.
	FillingsUpdate:  mu: -0.171251800  nElectrons: 688.338665
	SubspaceRotationAdjust: set factor to 0.347
ElecMinimize: Iter:  17  G: -4014.867690777077769  |grad|_K:  6.885e-08  alpha:  2.047e-05
	Linear fluid (dielectric constant: 78.4, screening length: 5.74355 Bohr) occupying 0.801733 of unit cell:	Completed after 0 iterations at t[s]:   1231.84
	Linear fluid (dielectric constant: 78.4, screening length: 5.74355 Bohr) occupying 0.801733 of unit cell:	Completed after 0 iterations at t[s]:   1246.33
	FillingsUpdate:  mu: -0.171251800  nElectrons: 688.339144
	SubspaceRotationAdjust: set factor to 0.488
ElecMinimize: Iter:  18  G: -4014.867690868201407  |grad|_K:  4.656e-08  alpha:  6.904e-02  linmin: -5.682e-04  t[s]:   1263.70
	Linear fluid (dielectric constant: 78.4, screening length: 5.74355 Bohr) occupying 0.801735 of unit cell:	Completed after 0 iterations at t[s]:   1280.52
ElecMinimize: 	Predicted alpha/alphaT>3.000000, increasing alphaT to 2.071299e-01.
	Linear fluid (dielectric constant: 78.4, screening length: 5.74355 Bohr) occupying 0.801738 of unit cell:	Completed after 2 iterations at t[s]:   1295.02
	Linear fluid (dielectric constant: 78.4, screening length: 5.74355 Bohr) occupying 0.801734 of unit cell:	Completed after 0 iterations at t[s]:   1308.65
	FillingsUpdate:  mu: -0.171251800  nElectrons: 688.339495
	SubspaceRotationAdjust: set factor to 0.462
ElecMinimize: Iter:  19  G: -4014.867690977331677  |grad|_K:  1.887e-07  alpha:  3.953e-02  linmin:  2.065e-04  t[s]:   1325.89
ElecMinimize: 	Bad step direction: g.d > 0.
ElecMinimize: 	Undoing step.
	Linear fluid (dielectric constant: 78.4, screening length: 5.74355 Bohr) occupying 0.801734 of unit cell:	Completed after 0 iterations at t[s]:   1342.44
ElecMinimize: 	Step failed: resetting search direction.
	FillingsUpdate:  mu: -0.171251800  nElectrons: 688.339495
	SubspaceRotationAdjust: set factor to 0.58
ElecMinimize: Iter:  20  G: -4014.867690977358961  |grad|_K:  1.866e-07  alpha:  0.000e+00
	Linear fluid (dielectric constant: 78.4, screening length: 5.74355 Bohr) occupying 0.801731 of unit cell:	Completed after 2 iterations at t[s]:   1376.68
	Linear fluid (dielectric constant: 78.4, screening length: 5.74355 Bohr) occupying 0.801733 of unit cell:	Completed after 0 iterations at t[s]:   1390.22
ElecMinimize: 	Step increased G by 7.841300e-08, reducing alpha to 1.661297e-03.
	Linear fluid (dielectric constant: 78.4, screening length: 5.74355 Bohr) occupying 0.801734 of unit cell:	Completed after 0 iterations at t[s]:   1419.38
ElecMinimize: 	Step increased G by 4.613457e-08, reducing alpha to 1.661297e-04.
	Linear fluid (dielectric constant: 78.4, screening length: 5.74355 Bohr) occupying 0.801734 of unit cell:	Completed after 0 iterations at t[s]:   1448.23
ElecMinimize: 	Step increased G by 4.327148e-08, reducing alpha to 1.661297e-05.
ElecMinimize: 	Step failed to reduce G after 3 attempts. Quitting step.
ElecMinimize: 	Undoing step.
	Linear fluid (dielectric constant: 78.4, screening length: 5.74355 Bohr) occupying 0.801734 of unit cell:	Completed after 0 iterations at t[s]:   1477.83
ElecMinimize: 	Step failed along negative gradient direction.
ElecMinimize: Probably at roundoff error limit. (Stopping)
Setting wave functions to eigenvectors of Hamiltonian

# Ionic positions in lattice coordinates:
ion Cu   0.346383084799864   0.255519257144702   0.525792997169667 0
ion Cu   0.096383084799864   0.494480741405298   0.525792997169667 0
ion Cu   0.153616416050136   0.244480741405298   0.474207002830333 0
ion Cu   0.403616416050136   0.005519257144702   0.474207002830333 0
ion Cu   0.846383084799864   0.255519257144702   0.525792997169667 0
ion Cu   0.596383084799864   0.494480741405298   0.525792997169667 0
ion Cu   0.653616416050136   0.244480741405298   0.474207002830333 0
ion Cu   0.903616416050136   0.005519257144702   0.474207002830333 0
ion Cu   0.346383084799864   0.755519257144702   0.525792997169667 0
ion Cu   0.096383084799864   0.994480741405298   0.525792997169667 0
ion Cu   0.153616416050136   0.744480741405298   0.474207002830333 0
ion Cu   0.403616416050136   0.505519257144702   0.474207002830333 0
ion Cu   0.846383084799864   0.755519257144702   0.525792997169667 0
ion Cu   0.596383084799864   0.994480741405298   0.525792997169667 0
ion Cu   0.653616416050136   0.744480741405298   0.474207002830333 0
ion Cu   0.903616416050136   0.505519257144702   0.474207002830333 0
ion Te   0.276791888554764   0.104323510122637   0.576228202758869 0
ion Te   0.223207612295236   0.395676488427364   0.423771797241131 0
ion Te   0.473207612295236   0.354323510122637   0.423771797241131 0
ion Te   0.026791888554764   0.145676488427364   0.576228202758869 0
ion Te   0.776791888554764   0.104323510122637   0.576228202758869 0
ion Te   0.723207612295236   0.395676488427364   0.423771797241131 0
ion Te   0.973207612295236   0.354323510122637   0.423771797241131 0
ion Te   0.526791888554764   0.145676488427364   0.576228202758869 0
ion Te   0.276791888554764   0.604323510122637   0.576228202758869 0
ion Te   0.223207612295236   0.895676488427364   0.423771797241131 0
ion Te   0.473207612295236   0.854323510122637   0.423771797241131 0
ion Te   0.026791888554764   0.645676488427364   0.576228202758869 0
ion Te   0.776791888554764   0.604323510122637   0.576228202758869 0
ion Te   0.723207612295236   0.895676488427364   0.423771797241131 0
ion Te   0.973207612295236   0.854323510122637   0.423771797241131 0
ion Te   0.526791888554764   0.645676488427364   0.576228202758869 0
ion O   0.304541183535366   0.066573592817669   0.481919801904477 0
ion O   0.259842265305348   0.301095962022295   0.457849433595123 0
ion O   0.399635892826124   0.175027794497781   0.577736103561032 0
ion O   0.490157235544652   0.051095962022295   0.542150566404877 0
ion O   0.350363608023876   0.425027794497781   0.422263896438968 0
ion O   0.149635892826124   0.074972204052219   0.577736103561032 0
ion O   0.445458317314634   0.316573592817669   0.518080198095523 0
ion O   0.195458317314634   0.433426405732331   0.518080198095523 0
ion O   0.009842265305348   0.448904036527705   0.457849433595123 0
ion O   0.240157235544652   0.198904036527705   0.542150566404877 0
ion O   0.054541183535366   0.183426405732331   0.481919801904477 0
ion O   0.100363608023876   0.324972204052218   0.422263896438968 0
ion O   0.804541183535366   0.066573592817669   0.481919801904477 0
ion O   0.759842265305348   0.301095962022295   0.457849433595123 0
ion O   0.899635892826124   0.175027794497781   0.577736103561032 0
ion O   0.990157235544652   0.051095962022295   0.542150566404877 0
ion O   0.850363608023876   0.425027794497781   0.422263896438968 0
ion O   0.649635892826124   0.074972204052219   0.577736103561032 0
ion O   0.945458317314634   0.316573592817669   0.518080198095523 0
ion O   0.695458317314634   0.433426405732331   0.518080198095523 0
ion O   0.509842265305348   0.448904036527705   0.457849433595123 0
ion O   0.740157235544652   0.198904036527705   0.542150566404877 0
ion O   0.554541183535366   0.183426405732331   0.481919801904477 0
ion O   0.600363608023876   0.324972204052218   0.422263896438968 0
ion O   0.304541183535366   0.566573592817669   0.481919801904477 0
ion O   0.259842265305348   0.801095962022295   0.457849433595123 0
ion O   0.399635892826124   0.675027794497781   0.577736103561032 0
ion O   0.490157235544652   0.551095962022295   0.542150566404877 0
ion O   0.350363608023876   0.925027794497781   0.422263896438968 0
ion O   0.149635892826124   0.574972204052218   0.577736103561032 0
ion O   0.445458317314634   0.816573592817669   0.518080198095523 0
ion O   0.195458317314634   0.933426405732331   0.518080198095523 0
ion O   0.009842265305348   0.948904036527705   0.457849433595123 0
ion O   0.240157235544652   0.698904036527705   0.542150566404877 0
ion O   0.054541183535366   0.683426405732331   0.481919801904477 0
ion O   0.100363608023876   0.824972204052218   0.422263896438968 0
ion O   0.804541183535366   0.566573592817669   0.481919801904477 0
ion O   0.759842265305348   0.801095962022295   0.457849433595123 0
ion O   0.899635892826124   0.675027794497781   0.577736103561032 0
ion O   0.990157235544652   0.551095962022295   0.542150566404877 0
ion O   0.850363608023876   0.925027794497781   0.422263896438968 0
ion O   0.649635892826124   0.574972204052218   0.577736103561032 0
ion O   0.945458317314634   0.816573592817669   0.518080198095523 0
ion O   0.695458317314634   0.933426405732331   0.518080198095523 0
ion O   0.509842265305348   0.948904036527705   0.457849433595123 0
ion O   0.740157235544652   0.698904036527705   0.542150566404877 0
ion O   0.554541183535366   0.683426405732331   0.481919801904477 0
ion O   0.600363608023876   0.824972204052218   0.422263896438968 0


# Forces in Lattice coordinates:
force Cu  -0.024950607500425  -0.046580760484808  -0.018585375003651 0
force Cu  -0.024950607500454   0.046580760484794  -0.018585375003708 0
force Cu   0.024950607500482   0.046580760484822   0.018585375003822 0
force Cu   0.024950607500482  -0.046580760484837   0.018585375003765 0
force Cu  -0.024950607500454  -0.046580760484808  -0.018585375003765 0
force Cu  -0.024950607500454   0.046580760484822  -0.018585375003708 0
force Cu   0.024950607500482   0.046580760484808   0.018585375003708 0
force Cu   0.024950607500482  -0.046580760484793   0.018585375003708 0
force Cu  -0.024950607500425  -0.046580760484836  -0.018585375003708 0
force Cu  -0.024950607500510   0.046580760484808  -0.018585375003765 0
force Cu   0.024950607500454   0.046580760484808   0.018585375003708 0
force Cu   0.024950607500482  -0.046580760484808   0.018585375003822 0
force Cu  -0.024950607500454  -0.046580760484822  -0.018585375003878 0
force Cu  -0.024950607500454   0.046580760484808  -0.018585375003708 0
force Cu   0.024950607500454   0.046580760484822   0.018585375003651 0
force Cu   0.024950607500454  -0.046580760484808   0.018585375003708 0
force Te   0.257824165250685  -0.106593306326888   1.259857423504410 0
force Te  -0.257824165250686   0.106593306326886  -1.259857423504241 0
force Te  -0.257824165250679  -0.106593306326887  -1.259857423504354 0
force Te   0.257824165250686   0.106593306326915   1.259857423504296 0
force Te   0.257824165250690  -0.106593306326886   1.259857423504410 0
force Te  -0.257824165250688   0.106593306326888  -1.259857423504240 0
force Te  -0.257824165250688  -0.106593306326900  -1.259857423504298 0
force Te   0.257824165250688   0.106593306326902   1.259857423504409 0
force Te   0.257824165250685  -0.106593306326872   1.259857423504466 0
force Te  -0.257824165250690   0.106593306326872  -1.259857423504183 0
force Te  -0.257824165250685  -0.106593306326872  -1.259857423504297 0
force Te   0.257824165250685   0.106593306326901   1.259857423504410 0
force Te   0.257824165250693  -0.106593306326901   1.259857423504353 0
force Te  -0.257824165250686   0.106593306326887  -1.259857423504297 0
force Te  -0.257824165250686  -0.106593306326887  -1.259857423504241 0
force Te   0.257824165250684   0.106593306326888   1.259857423504466 0
force O   0.206622616173743  -0.428862705991643  -1.052891655825285 0
force O   0.167197021782425  -0.628569586603644   0.152568673307651 0
force O  -0.310827803597508   0.250400006307549  -0.009409682744083 0
force O  -0.167197021782425  -0.628569586603643  -0.152568673307595 0
force O   0.310827803597508   0.250400006307549   0.009409682744198 0
force O  -0.310827803597522  -0.250400006307535  -0.009409682744084 0
force O  -0.206622616173772  -0.428862705991658   1.052891655825345 0
force O  -0.206622616173743   0.428862705991643   1.052891655825292 0
force O   0.167197021782431   0.628569586603673   0.152568673307595 0
force O  -0.167197021782418   0.628569586603675  -0.152568673307708 0
force O   0.206622616173772   0.428862705991615  -1.052891655825313 0
force O   0.310827803597508  -0.250400006307535   0.009409682744084 0
force O   0.206622616173743  -0.428862705991657  -1.052891655825260 0
force O   0.167197021782432  -0.628569586603644   0.152568673307651 0
force O  -0.310827803597494   0.250400006307563  -0.009409682744084 0
force O  -0.167197021782425  -0.628569586603616  -0.152568673307595 0
force O   0.310827803597522   0.250400006307535   0.009409682744197 0
force O  -0.310827803597494  -0.250400006307549  -0.009409682744084 0
force O  -0.206622616173743  -0.428862705991629   1.052891655825288 0
force O  -0.206622616173772   0.428862705991657   1.052891655825313 0
force O   0.167197021782424   0.628569586603643   0.152568673307538 0
force O  -0.167197021782418   0.628569586603671  -0.152568673307538 0
force O   0.206622616173772   0.428862705991615  -1.052891655825313 0
force O   0.310827803597494  -0.250400006307520   0.009409682744198 0
force O   0.206622616173771  -0.428862705991643  -1.052891655825317 0
force O   0.167197021782410  -0.628569586603671   0.152568673307594 0
force O  -0.310827803597508   0.250400006307535  -0.009409682744084 0
force O  -0.167197021782433  -0.628569586603643  -0.152568673307651 0
force O   0.310827803597523   0.250400006307549   0.009409682744198 0
force O  -0.310827803597523  -0.250400006307535  -0.009409682743970 0
force O  -0.206622616173742  -0.428862705991629   1.052891655825370 0
force O  -0.206622616173743   0.428862705991629   1.052891655825292 0
force O   0.167197021782417   0.628569586603673   0.152568673307651 0
force O  -0.167197021782425   0.628569586603675  -0.152568673307765 0
force O   0.206622616173771   0.428862705991643  -1.052891655825256 0
force O   0.310827803597509  -0.250400006307563   0.009409682744084 0
force O   0.206622616173743  -0.428862705991643  -1.052891655825256 0
force O   0.167197021782417  -0.628569586603673   0.152568673307765 0
force O  -0.310827803597509   0.250400006307549  -0.009409682744083 0
force O  -0.167197021782425  -0.628569586603673  -0.152568673307651 0
force O   0.310827803597508   0.250400006307549   0.009409682744311 0
force O  -0.310827803597508  -0.250400006307521  -0.009409682744084 0
force O  -0.206622616173771  -0.428862705991615   1.052891655825288 0
force O  -0.206622616173743   0.428862705991643   1.052891655825341 0
force O   0.167197021782417   0.628569586603673   0.152568673307538 0
force O  -0.167197021782425   0.628569586603644  -0.152568673307708 0
force O   0.206622616173771   0.428862705991657  -1.052891655825285 0
force O   0.310827803597510  -0.250400006307521   0.009409682744197 0

# Energy components:
   A_diel =       -0.0759664805396097
   Eewald =    11989.7369599193498289
       EH =    15696.0474810346313461
     Eloc =   -32670.0777040863104048
      Enl =      649.0390561370155638
      Exc =     -600.2565654394742296
 Exc_core =       83.1532991634010159
       KE =      719.7604595841394257
  MuShift =       -0.0033944318023319
-------------------------------------
     Etot =    -4132.6763745995876889
       TS =        0.0706927532493506
-------------------------------------
        F =    -4132.7470673528368934
      muN =     -117.8793764187596196
-------------------------------------
        G =    -4014.8676909340774728

IonicMinimize: Iter:   0  G: -4014.867690934077473  |grad|_K:  0.000e+00  t[s]:   1510.15
IonicMinimize: Converged (|grad|_K<1.000000e-04).

#--- Lowdin population analysis ---
# oxidation-state Cu +0.318 +0.318 +0.318 +0.318 +0.318 +0.318 +0.318 +0.318 +0.318 +0.318 +0.318 +0.318 +0.318 +0.318 +0.318 +0.318
# oxidation-state Te +1.861 +1.861 +1.861 +1.861 +1.861 +1.861 +1.861 +1.861 +1.861 +1.861 +1.861 +1.861 +1.861 +1.861 +1.861 +1.861
# oxidation-state O -0.666 -0.544 -0.706 -0.544 -0.706 -0.706 -0.666 -0.666 -0.544 -0.544 -0.666 -0.706 -0.666 -0.544 -0.706 -0.544 -0.706 -0.706 -0.666 -0.666 -0.544 -0.544 -0.666 -0.706 -0.666 -0.544 -0.706 -0.544 -0.706 -0.706 -0.666 -0.666 -0.544 -0.544 -0.666 -0.706 -0.666 -0.544 -0.706 -0.544 -0.706 -0.706 -0.666 -0.666 -0.544 -0.544 -0.666 -0.706


Dumping 'NbTe2.fillings' ... done
Dumping 'NbTe2.wfns' ... done
Dumping 'NbTe2.fluidState' ... done
Dumping 'NbTe2.eigenvals' ... done
End date and time: Fri Jul 17 07:18:29 2020  (Duration: 0-0:25:24.32)
Done!

*************** JDFTx 1.5.0  ***************

Start date and time: Fri Jul 17 07:19:26 2020
Executable jdftx_gpu with command-line: -i Charged.in -o Charged.out
Running on hosts (process indices):  amax (0-5)
Divided in process groups (process indices):  0 (0)  1 (1)  2 (2)  3 (3)  4 (4)  5 (5)
gpuInit: Found compatible cuda device 0 'Tesla K80'
gpuInit: Found compatible cuda device 1 'Tesla K80'
gpuInit: Found compatible cuda device 2 'Tesla K80'
gpuInit: Found compatible cuda device 3 'Tesla K80'
gpuInit: Found compatible cuda device 4 'Tesla K80'
gpuInit: Found compatible cuda device 5 'Tesla K80'
gpuInit: Selected device 0
Resource initialization completed at t[s]:     15.58
Run totals: 6 processes, 24 threads, 6 GPUs


Input parsed successfully to the following command list (including defaults):

basis kpoint-dependent
cache-projectors no
coords-type Lattice
core-overlap-check none
coulomb-interaction Slab 001
coulomb-truncation-embed 0 0 0.5
davidson-band-ratio 1.1
dump End State
dump-name NbTe2.$VAR
elec-cutoff 20 100
elec-eigen-algo Davidson
elec-ex-corr gga-PBE
elec-smearing Gauss 0.0073499
electronic-minimize  \
	dirUpdateScheme      FletcherReeves \
	linminMethod         DirUpdateRecommended \
	nIterations          500 \
	history              15 \
	knormThreshold       0 \
	energyDiffThreshold  1e-08 \
	nEnergyDiff          2 \
	alphaTstart          1 \
	alphaTmin            1e-10 \
	updateTestStepSize   yes \
	alphaTreduceFactor   0.1 \
	alphaTincreaseFactor 3 \
	nAlphaAdjustMax      3 \
	wolfeEnergy          0.0001 \
	wolfeGradient        0.9 \
	fdTest               no
exchange-regularization WignerSeitzTruncated
fluid LinearPCM 298.000000 1.013250
fluid-anion F- 1 MeanFieldLJ \
	epsBulk 1 \
	pMol 0 \
	epsInf 1 \
	Pvap 0 \
	sigmaBulk 0 \
	Rvdw 2.24877 \
	Res 0 \
	tauNuc 343133
fluid-cation Na+ 1 MeanFieldLJ \
	epsBulk 1 \
	pMol 0 \
	epsInf 1 \
	Pvap 0 \
	sigmaBulk 0 \
	Rvdw 2.19208 \
	Res 0 \
	tauNuc 343133
fluid-ex-corr lda-TF lda-PZ
fluid-gummel-loop 10 1.000000e-05
fluid-minimize  \
	dirUpdateScheme      PolakRibiere \
	linminMethod         DirUpdateRecommended \
	nIterations          400 \
	history              15 \
	knormThreshold       1e-11 \
	energyDiffThreshold  0 \
	nEnergyDiff          2 \
	alphaTstart          1 \
	alphaTmin            1e-10 \
	updateTestStepSize   yes \
	alphaTreduceFactor   0.1 \
	alphaTincreaseFactor 3 \
	nAlphaAdjustMax      6 \
	wolfeEnergy          0.0001 \
	wolfeGradient        0.9 \
	fdTest               no
fluid-solvent H2O 55.338 ScalarEOS \
	epsBulk 78.4 \
	pMol 0.92466 \
	epsInf 1.77 \
	Pvap 1.06736e-10 \
	sigmaBulk 4.62e-05 \
	Rvdw 2.61727 \
	Res 1.42 \
	tauNuc 343133 \
	poleEl 15 7 1
forces-output-coords Positions
initial-state NbTe2.$VAR
ion Cu   0.346383343374864   0.255519251369701   0.525792997169667 0
ion Cu   0.096383335374864   0.494480748630299   0.525792997169667 0
ion Cu   0.153616672625137   0.244480748630298   0.474207002830333 0
ion Cu   0.403616672625137   0.005519251369702   0.474207002830333 0
ion Cu   0.846383311374862   0.255519251369701   0.525792997169667 0
ion Cu   0.596383327374863   0.494480748630299   0.525792997169667 0
ion Cu   0.653616656625135   0.244480748630298   0.474207002830333 0
ion Cu   0.903616640625134   0.005519251369702   0.474207002830333 0
ion Cu   0.346383343374864   0.755519277369704   0.525792997169667 0
ion Cu   0.096383335374864   0.994480748630299   0.525792997169667 0
ion Cu   0.153616672625137   0.744480722630296   0.474207002830333 0
ion Cu   0.403616672625137   0.505519251369701   0.474207002830333 0
ion Cu   0.846383311374862   0.755519277369704   0.525792997169667 0
ion Cu   0.596383327374863   0.994480748630299   0.525792997169667 0
ion Cu   0.653616656625135   0.744480722630296   0.474207002830333 0
ion Cu   0.903616640625134   0.505519251369701   0.474207002830333 0
ion Te   0.276798392254766   0.104323504222635   0.576228202758869 0
ion Te   0.223211608745234   0.395676469777362   0.423771797241131 0
ion Te   0.473201623745236   0.354323530222638   0.423771797241131 0
ion Te   0.026788395254759   0.145676495777365   0.576228202758869 0
ion Te   0.776788375254764   0.104323504222635   0.576228202758869 0
ion Te   0.723211592745240   0.395676469777362   0.423771797241131 0
ion Te   0.973201623745236   0.354323530222638   0.423771797241131 0
ion Te   0.526788391254766   0.145676495777365   0.576228202758869 0
ion Te   0.276798392254766   0.604323479222637   0.576228202758869 0
ion Te   0.223211608745234   0.895676469777362   0.423771797241131 0
ion Te   0.473201623745236   0.854323504222636   0.423771797241131 0
ion Te   0.026788395254759   0.645676495777364   0.576228202758869 0
ion Te   0.776788375254764   0.604323479222637   0.576228202758869 0
ion Te   0.723211592745240   0.895676469777362   0.423771797241131 0
ion Te   0.973201623745236   0.854323504222636   0.423771797241131 0
ion Te   0.526788391254766   0.645676495777364   0.576228202758869 0
ion O   0.304541442485369   0.066573585917670   0.481919801904477 0
ion O   0.259842503130347   0.301095986497297   0.457849433595123 0
ion O   0.399636166526122   0.175027798347782   0.577736103561033 0
ion O   0.490157480869651   0.051095976497296   0.542150566404877 0
ion O   0.350363848473875   0.425027811347780   0.422263896438968 0
ion O   0.149636151526125   0.074972201652218   0.577736103561033 0
ion O   0.445458572514636   0.316573579917670   0.518080198095523 0
ion O   0.195458572514636   0.433426420082330   0.518080198095523 0
ion O   0.009842517130348   0.448904039502706   0.457849433595123 0
ion O   0.240157496869653   0.198904013502704   0.542150566404877 0
ion O   0.054541427485364   0.183426420082330   0.481919801904477 0
ion O   0.100363840473875   0.324972188652220   0.422263896438968 0
ion O   0.804541411485370   0.066573585917670   0.481919801904477 0
ion O   0.759842535130350   0.301095986497297   0.457849433595123 0
ion O   0.899636135526123   0.175027798347782   0.577736103561033 0
ion O   0.990157480869652   0.051095976497296   0.542150566404877 0
ion O   0.850363880473878   0.425027811347780   0.422263896438968 0
ion O   0.649636151526125   0.074972201652218   0.577736103561033 0
ion O   0.945458541514637   0.316573579917670   0.518080198095523 0
ion O   0.695458557514631   0.433426420082330   0.518080198095523 0
ion O   0.509842519130348   0.448904039502706   0.457849433595123 0
ion O   0.740157496869653   0.198904013502704   0.542150566404877 0
ion O   0.554541427485364   0.183426420082330   0.481919801904477 0
ion O   0.600363896473872   0.324972188652220   0.422263896438968 0
ion O   0.304541442485369   0.566573579917670   0.481919801904477 0
ion O   0.259842503130347   0.801095935497296   0.457849433595123 0
ion O   0.399636166526122   0.675027785347785   0.577736103561033 0
ion O   0.490157480869651   0.551095960497294   0.542150566404877 0
ion O   0.350363848473875   0.925027811347780   0.422263896438968 0
ion O   0.149636151526125   0.574972239652221   0.577736103561033 0
ion O   0.445458572514636   0.816573605917665   0.518080198095523 0
ion O   0.195458572514636   0.933426369082329   0.518080198095523 0
ion O   0.009842517130348   0.948904039502706   0.457849433595123 0
ion O   0.240157496869653   0.698904064502704   0.542150566404877 0
ion O   0.054541427485364   0.683426394082335   0.481919801904477 0
ion O   0.100363840473875   0.824972214652215   0.422263896438968 0
ion O   0.804541411485370   0.566573579917670   0.481919801904477 0
ion O   0.759842535130350   0.801095935497296   0.457849433595123 0
ion O   0.899636135526123   0.675027785347785   0.577736103561033 0
ion O   0.990157480869652   0.551095960497294   0.542150566404877 0
ion O   0.850363880473878   0.925027811347780   0.422263896438968 0
ion O   0.649636151526125   0.574972239652221   0.577736103561033 0
ion O   0.945458541514637   0.816573605917665   0.518080198095523 0
ion O   0.695458557514631   0.933426369082329   0.518080198095523 0
ion O   0.509842519130348   0.948904039502706   0.457849433595123 0
ion O   0.740157496869653   0.698904064502704   0.542150566404877 0
ion O   0.554541427485364   0.683426394082335   0.481919801904477 0
ion O   0.600363896473872   0.824972214652215   0.422263896438968 0
ion-species GBRV/$ID_pbe.uspp
ion-width Ecut
ionic-minimize  \
	dirUpdateScheme      L-BFGS \
	linminMethod         DirUpdateRecommended \
	nIterations          0 \
	history              15 \
	knormThreshold       0.0001 \
	energyDiffThreshold  1e-06 \
	nEnergyDiff          2 \
	alphaTstart          1 \
	alphaTmin            1e-10 \
	updateTestStepSize   yes \
	alphaTreduceFactor   0.1 \
	alphaTincreaseFactor 3 \
	nAlphaAdjustMax      3 \
	wolfeEnergy          0.0001 \
	wolfeGradient        0.9 \
	fdTest               no
kpoint   0.000000000000   0.000000000000   0.000000000000  1.00000000000000
kpoint-folding 3 3 1 
latt-move-scale 1 1 1
latt-scale 1 1 1 
lattice Triclinic 28.6071 35.3613 33.7454 90 90 90
lattice-minimize  \
	dirUpdateScheme      L-BFGS \
	linminMethod         DirUpdateRecommended \
	nIterations          0 \
	history              15 \
	knormThreshold       0 \
	energyDiffThreshold  1e-06 \
	nEnergyDiff          2 \
	alphaTstart          1 \
	alphaTmin            1e-10 \
	updateTestStepSize   yes \
	alphaTreduceFactor   0.1 \
	alphaTincreaseFactor 3 \
	nAlphaAdjustMax      3 \
	wolfeEnergy          0.0001 \
	wolfeGradient        0.9 \
	fdTest               no
lcao-params -1 1e-06 0.0073499
pcm-variant CANDLE
spintype no-spin
subspace-rotation-factor 1 yes
symmetries automatic
symmetry-threshold 0.0001
target-mu -0.24475 no




---------- Setting up symmetries ----------

Found 8 point-group symmetries of the bravais lattice
Found 16 space-group symmetries with basis
Applied RMS atom displacement 6.1462e-05 bohrs to make symmetries exact.

---------- Initializing the Grid ----------
R = 
[    28.6071          0          0  ]
[          0    35.3613          0  ]
[          0          0    33.7454  ]
unit cell volume = 34136.3
G =
[   0.219638          0          0  ]
[          0   0.177685          0  ]
[          0          0   0.186194  ]
Minimum fftbox size, Smin = [  132  160  152  ]
Chosen fftbox size, S = [  140  160  160  ]

---------- Initializing tighter grid for wavefunction operations ----------
R = 
[    28.6071          0          0  ]
[          0    35.3613          0  ]
[          0          0    33.7454  ]
unit cell volume = 34136.3
G =
[   0.219638          0          0  ]
[          0   0.177685          0  ]
[          0          0   0.186194  ]
Minimum fftbox size, Smin = [  116  144  136  ]
Chosen fftbox size, S = [  120  144  140  ]

---------- Exchange Correlation functional ----------
Initalized PBE GGA exchange.
Initalized PBE GGA correlation.

---------- Setting up pseudopotentials ----------
Width of ionic core gaussian charges (only for fluid interactions / plotting) set to 0.397384

Reading pseudopotential file '/home/guoxy/vasp/jdftx-1.5.0/build/pseudopotentials/GBRV/cu_pbe.uspp':
  Title: Cu.  Created by USPP 7.3.6 on 3-2-2014
  Reference state energy: -201.059491.  19 valence electrons in orbitals:
    |300>  occupation: 2  eigenvalue: -5.020764
    |310>  occupation: 6  eigenvalue: -3.445588
    |320>  occupation: 8  eigenvalue: -0.925168
    |400>  occupation: 2  eigenvalue: -0.567638
    |410>  occupation: 0  eigenvalue: -0.326154
  lMax: 2  lLocal: 3  QijEcut: 6
  6 projectors sampled on a log grid with 613 points:
    l: 0  eig: -5.020767  rCut: 1.4
    l: 0  eig: -0.567640  rCut: 1.4
    l: 1  eig: -3.445589  rCut: 1.55
    l: 1  eig: -0.326157  rCut: 1.55
    l: 2  eig: -0.925170  rCut: 1.5
    l: 2  eig: 1.500000  rCut: 1.5
  Partial core density with radius 0.8
  Transforming core density to a uniform radial grid of dG=0.02 with 1290 points.
  Transforming local potential to a uniform radial grid of dG=0.02 with 1290 points.
  Transforming nonlocal projectors to a uniform radial grid of dG=0.02 with 432 points.
  Transforming density augmentations to a uniform radial grid of dG=0.02 with 1290 points.
  Transforming atomic orbitals to a uniform radial grid of dG=0.02 with 432 points.
  Core radius for overlap checks: 1.55 bohrs.

Reading pseudopotential file '/home/guoxy/vasp/jdftx-1.5.0/build/pseudopotentials/GBRV/te_pbe.uspp':
  Title: Te.  Created by USPP 7.3.6 on 14-9-2013
  Reference state energy: -13.134220.  6 valence electrons in orbitals:
    |500>  occupation: 2  eigenvalue: -0.555231
    |510>  occupation: 4  eigenvalue: -0.218781
  lMax: 2  lLocal: 2  QijEcut: 5
  5 projectors sampled on a log grid with 723 points:
    l: 0  eig: -0.555229  rCut: 2.1
    l: 0  eig: 1.000000  rCut: 2.1
    l: 1  eig: -0.218780  rCut: 2.1
    l: 1  eig: 1.000000  rCut: 2.1
    l: 2  eig: 1.000000  rCut: 2.6
  Partial core density with radius 1.8
  Transforming core density to a uniform radial grid of dG=0.02 with 1290 points.
  Transforming local potential to a uniform radial grid of dG=0.02 with 1290 points.
  Transforming nonlocal projectors to a uniform radial grid of dG=0.02 with 432 points.
  Transforming density augmentations to a uniform radial grid of dG=0.02 with 1290 points.
  Transforming atomic orbitals to a uniform radial grid of dG=0.02 with 432 points.
  Core radius for overlap checks: 2.60 bohrs.

Reading pseudopotential file '/home/guoxy/vasp/jdftx-1.5.0/build/pseudopotentials/GBRV/o_pbe.uspp':
  Title: O.  Created by USPP 7.3.6 on 3-2-2014
  Reference state energy: -15.894388.  6 valence electrons in orbitals:
    |200>  occupation: 2  eigenvalue: -0.878823
    |210>  occupation: 4  eigenvalue: -0.332131
  lMax: 2  lLocal: 2  QijEcut: 6
  5 projectors sampled on a log grid with 511 points:
    l: 0  eig: -0.878823  rCut: 1.25
    l: 0  eig: 0.000000  rCut: 1.25
    l: 1  eig: -0.332132  rCut: 1.25
    l: 1  eig: 0.000000  rCut: 1.25
    l: 2  eig: 1.000000  rCut: 1.25
  Partial core density with radius 0.7
  Transforming core density to a uniform radial grid of dG=0.02 with 1290 points.
  Transforming local potential to a uniform radial grid of dG=0.02 with 1290 points.
  Transforming nonlocal projectors to a uniform radial grid of dG=0.02 with 432 points.
  Transforming density augmentations to a uniform radial grid of dG=0.02 with 1290 points.
  Transforming atomic orbitals to a uniform radial grid of dG=0.02 with 432 points.
  Core radius for overlap checks: 1.25 bohrs.

Initialized 3 species with 80 total atoms.

Folded 1 k-points by 3x3x1 to 9 k-points.

---------- Setting up k-points, bands, fillings ----------
Reduced to 4 k-points under symmetry. 
Computing the number of bands and number of electrons
Reading initial fillings from file NbTe2.fillings.
nElectrons: 688.339489   nBands: 464   nStates: 4

----- Setting up reduced wavefunction bases (one per k-point) -----
average nbasis = 145806.556 , ideal nbasis = 145832.736

---------- Setting up coulomb interaction ----------
Fluid mode embedding: using embedded box, but periodic Coulomb kernel.
(Fluid response is responsible for (approximate) separation between periodic images.)
Setting up double-sized grid for truncated Coulomb potentials:
R = 
[    28.6071          0          0  ]
[          0    35.3613          0  ]
[          0          0    67.4908  ]
unit cell volume = 68272.5
G =
[   0.219638          0          0  ]
[          0   0.177685          0  ]
[          0          0  0.0930969  ]
Chosen fftbox size, S = [  140  160  320  ]
Integer grid location selected as the embedding center:
   Grid: [  0  0  80  ]
   Lattice: [  0  0  0.5  ]
   Cartesian: [  0  0  16.8727  ]
Constructing Wigner-Seitz cell: 6 faces (6 quadrilaterals, 0 hexagons)
Range-separation parameter for embedded mesh potentials due to point charges: 0.593081 bohrs.

Initializing van der Waals corrections
	NOTE: vdW corrections apply only for interactions with fluid.
	Cu:  C6:  187.33 Eh-a0^6  R0: 2.952 a0
	Te:  C6:  550.54 Eh-a0^6  R0: 3.575 a0
	 O:  C6:   12.14 Eh-a0^6  R0: 2.536 a0

---------- Setting up ewald sum ----------
Optimum gaussian width for ewald sums = 7.854956 bohr.
Real space sum over 567 unit cells with max indices [  4  4  3  ]
Reciprocal space sum over 7395 terms with max indices [  7  8  14  ]

---------- Allocating electronic variables ----------
Initializing wave functions:  reading from 'NbTe2.wfns'
----- createFluidSolver() ----- (Fluid-side solver setup)
   Initializing fluid molecule 'H2O'
     Initializing site 'O'
       Electron density: proportional to exp(-r/0.36935)*erfc((r-0.51523)/0.36823) with norm 6.826
       Charge density: gaussian nuclear width 0.478731 with net site charge 0.826
       Polarizability: cuspless exponential with width 0.32 and norm 3.73
       Hard sphere radius: 2.57003 bohrs
       Positions in reference frame:
         [ +0.000000 +0.000000 +0.000000 ]
     Initializing site 'H'
       Electron density: proportional to exp(-r/0.34641)*erfc((r-0)/0.390882) with norm 0.587
       Charge density: gaussian nuclear width 0.377945 with net site charge -0.413
       Polarizability: cuspless exponential with width 0.39 and norm 3.3
       Positions in reference frame:
         [ +0.000000 -1.441945 +1.122523 ]
         [ +0.000000 +1.441945 +1.122523 ]
     Net charge: 0   dipole magnitude: 0.927204
     Initializing spherical shell mfKernel with radius 2.61727 Bohr
     deltaS corrections:
       site 'O': -7.54299
       site 'H': -6.83917
   Initializing fluid molecule 'Na+'
     Initializing site 'Na'
       Electron density: proportional to exp(-r/0.19682)*erfc((r-0.71491)/0.41314) with norm 8.1383
       Charge density: gaussian nuclear width 0.365347 with net site charge -1
       Hard sphere radius: 1.86327 bohrs
       Positions in reference frame:
         [ +0.000000 +0.000000 +0.000000 ]
     Net charge: -1   dipole magnitude: 0
     Initializing gaussian mfKernel with width: 1.55004 Bohr
     deltaS corrections:
       site 'Na': -22.3555
   Initializing fluid molecule 'F-'
     Initializing site 'F'
       Electron density: proportional to exp(-r/0.38886)*erfc((r-0)/0.438782) with norm 8
       Charge density: gaussian nuclear width 0.374796 with net site charge 1
       Hard sphere radius: 2.39995 bohrs
       Positions in reference frame:
         [ +0.000000 +0.000000 +0.000000 ]
     Net charge: 1   dipole magnitude: 0
     Initializing gaussian mfKernel with width: 1.59012 Bohr
     deltaS corrections:
       site 'F': -9.04335

Correction to mu due to finite nuclear width = -0.00999866
   Cavity determined by nc: 0.00142 and sigma: 0.707107
   Nonlocal vdW cavity from gaussian model electron density with norm = 8 and sigma = 0.993594 bohr
   Charge asymmetry in cavity with sensitivity pCavity = 36.5 e-bohr/Eh
   Electrostatic cavity expanded by eta = 1.46 bohrs
   Weighted density cavitation model constrained by Nbulk: 0.0049383 bohr^-3, Pvap: 3.14029 kPa, Rvdw: 2.61727 bohr and sigmaBulk: 4.62e-05 Eh/bohr^2 at T: 298 K.
   Weighted density dispersion model using vdW pair potentials with single solvent site with sqrtC6eff: 0.77 SI.
Reading fluid state from 'NbTe2.fluidState'


---- Citations for features of the code used in this run ----

   Software package:
      R. Sundararaman, K. Letchworth-Weaver, K.A. Schwarz, D. Gunceler, Y. Ozhabes and T.A. Arias, 'JDFTx: software for joint density-functional theory', SoftwareX 6, 278 (2017)

   gga-PBE exchange-correlation functional:
      J.P. Perdew, K. Burke and M. Ernzerhof, Phys. Rev. Lett. 77, 3865 (1996)

   Pseudopotentials:
      KF Garrity, JW Bennett, KM Rabe and D Vanderbilt, Comput. Mater. Sci. 81, 446 (2014)

   Truncated Coulomb potentials:
      R. Sundararaman and T.A. Arias, Phys. Rev. B 87, 165122 (2013)

   Van der Waals correction pair-potentials:
      S. Grimme, J. Comput. Chem. 27, 1787 (2006)

   Charge-asymmetric nonlocally-determined local-electric (CANDLE) solvation model:
      R. Sundararaman and W.A. Goddard III, J. Chem. Phys. 142, 064107 (2015)

   Total energy minimization with Auxiliary Hamiltonian:
      C. Freysoldt, S. Boeck, and J. Neugebauer, Phys. Rev. B 79, 241103(R) (2009)

   Grand-canonical (fixed-potential) DFT:
      R. Sundararaman, W. A. Goddard III and T. A. Arias, J. Chem. Phys. 146, 114104 (2017)

This list may not be complete. Please suggest additional citations or
report any other bugs at https://github.com/shankar1729/jdftx/issues

Initialization completed successfully at t[s]:     48.07

Shifting auxilliary hamiltonian by -0.073464 to set nElectrons=688.339489
	Linear fluid (dielectric constant: 78.4, screening length: 5.74355 Bohr) occupying 0.801742 of unit cell:	Completed after 2 iterations at t[s]:     57.51

-------- Electronic minimization -----------
	Linear fluid (dielectric constant: 78.4, screening length: 5.74355 Bohr) occupying 0.801742 of unit cell:	Completed after 0 iterations at t[s]:     66.14
	FillingsUpdate:  mu: -0.244750400  nElectrons: 688.339489
ElecMinimize: Iter:   0  G: -3964.275701236990244  |grad|_K:  8.095e-05  alpha:  1.000e+00
	Linear fluid (dielectric constant: 78.4, screening length: 5.74355 Bohr) occupying 0.805862 of unit cell:	Completed after 25 iterations at t[s]:    104.14
	Linear fluid (dielectric constant: 78.4, screening length: 5.74355 Bohr) occupying 0.801236 of unit cell:	Completed after 24 iterations at t[s]:    121.51
	FillingsUpdate:  mu: -0.244750400  nElectrons: 687.990156
	SubspaceRotationAdjust: set factor to 0.502
ElecMinimize: Iter:   1  G: -3964.299798924347670  |grad|_K:  7.061e-05  alpha:  7.260e-03  linmin: -3.034e-02  t[s]:    139.82
	Linear fluid (dielectric constant: 78.4, screening length: 5.74355 Bohr) occupying 0.800734 of unit cell:	Completed after 14 iterations at t[s]:    157.69
ElecMinimize: 	Predicted alpha/alphaT>3.000000, increasing alphaT to 2.177869e-02.
	Linear fluid (dielectric constant: 78.4, screening length: 5.74355 Bohr) occupying 0.800398 of unit cell:	Completed after 14 iterations at t[s]:    173.42
	Linear fluid (dielectric constant: 78.4, screening length: 5.74355 Bohr) occupying 0.800394 of unit cell:	Completed after 14 iterations at t[s]:    190.01
	FillingsUpdate:  mu: -0.244750400  nElectrons: 685.813690
	SubspaceRotationAdjust: set factor to 0.439
ElecMinimize: Iter:   2  G: -3964.369920197681950  |grad|_K:  3.680e-05  alpha:  2.807e-02  linmin:  1.327e-04  t[s]:    209.07
	Linear fluid (dielectric constant: 78.4, screening length: 5.74355 Bohr) occupying 0.800472 of unit cell:	Completed after 12 iterations at t[s]:    225.50
	Linear fluid (dielectric constant: 78.4, screening length: 5.74355 Bohr) occupying 0.800588 of unit cell:	Completed after 14 iterations at t[s]:    241.30
	FillingsUpdate:  mu: -0.244750400  nElectrons: 684.463852
	SubspaceRotationAdjust: set factor to 0.342
ElecMinimize: Iter:   3  G: -3964.393761402334803  |grad|_K:  3.396e-05  alpha:  6.886e-02  linmin: -8.560e-06  t[s]:    260.12
	Linear fluid (dielectric constant: 78.4, screening length: 5.74355 Bohr) occupying 0.800924 of unit cell:	Completed after 13 iterations at t[s]:    277.62
	Linear fluid (dielectric constant: 78.4, screening length: 5.74355 Bohr) occupying 0.800830 of unit cell:	Completed after 10 iterations at t[s]:    292.24
	FillingsUpdate:  mu: -0.244750400  nElectrons: 684.012815
	SubspaceRotationAdjust: set factor to 0.369
ElecMinimize: Iter:   4  G: -3964.409260155894572  |grad|_K:  2.483e-05  alpha:  4.947e-02  linmin: -2.246e-07  t[s]:    309.39
	Linear fluid (dielectric constant: 78.4, screening length: 5.74355 Bohr) occupying 0.801065 of unit cell:	Completed after 12 iterations at t[s]:    327.02
	Linear fluid (dielectric constant: 78.4, screening length: 5.74355 Bohr) occupying 0.801349 of unit cell:	Completed after 14 iterations at t[s]:    342.80
	FillingsUpdate:  mu: -0.244750400  nElectrons: 683.895375
	SubspaceRotationAdjust: set factor to 0.376
ElecMinimize: Iter:   5  G: -3964.427898626788192  |grad|_K:  3.481e-05  alpha:  1.099e-01  linmin: -2.579e-05  t[s]:    360.09
	Linear fluid (dielectric constant: 78.4, screening length: 5.74355 Bohr) occupying 0.802557 of unit cell:	Completed after 15 iterations at t[s]:    377.77
	Linear fluid (dielectric constant: 78.4, screening length: 5.74355 Bohr) occupying 0.802598 of unit cell:	Completed after 4 iterations at t[s]:    393.35
	FillingsUpdate:  mu: -0.244750400  nElectrons: 683.363477
	SubspaceRotationAdjust: set factor to 0.401
ElecMinimize: Iter:   6  G: -3964.466313348179483  |grad|_K:  2.972e-05  alpha:  1.137e-01  linmin: -2.487e-05  t[s]:    410.78
	Linear fluid (dielectric constant: 78.4, screening length: 5.74355 Bohr) occupying 0.803658 of unit cell:	Completed after 14 iterations at t[s]:    430.99
	Linear fluid (dielectric constant: 78.4, screening length: 5.74355 Bohr) occupying 0.803042 of unit cell:	Completed after 13 iterations at t[s]:    447.44
	FillingsUpdate:  mu: -0.244750400  nElectrons: 682.905177
	SubspaceRotationAdjust: set factor to 0.629
ElecMinimize: Iter:   7  G: -3964.478124774403113  |grad|_K:  1.441e-05  alpha:  4.747e-02  linmin: -4.657e-05  t[s]:    464.82
	Linear fluid (dielectric constant: 78.4, screening length: 5.74355 Bohr) occupying 0.803218 of unit cell:	Completed after 12 iterations at t[s]:    484.11
	Linear fluid (dielectric constant: 78.4, screening length: 5.74355 Bohr) occupying 0.803327 of unit cell:	Completed after 9 iterations at t[s]:    500.97
	FillingsUpdate:  mu: -0.244750400  nElectrons: 682.573704
	SubspaceRotationAdjust: set factor to 0.645
ElecMinimize: Iter:   8  G: -3964.482507512916982  |grad|_K:  1.610e-05  alpha:  7.686e-02  linmin:  6.078e-06  t[s]:    517.61
	Linear fluid (dielectric constant: 78.4, screening length: 5.74355 Bohr) occupying 0.803826 of unit cell:	Completed after 11 iterations at t[s]:    535.96
	Linear fluid (dielectric constant: 78.4, screening length: 5.74355 Bohr) occupying 0.804212 of unit cell:	Completed after 12 iterations at t[s]:    553.82
	FillingsUpdate:  mu: -0.244750400  nElectrons: 682.084477
	SubspaceRotationAdjust: set factor to 0.749
ElecMinimize: Iter:   9  G: -3964.492104150892828  |grad|_K:  2.204e-05  alpha:  1.375e-01  linmin:  6.015e-06  t[s]:    571.06
	Linear fluid (dielectric constant: 78.4, screening length: 5.74355 Bohr) occupying 0.805987 of unit cell:	Completed after 13 iterations at t[s]:    590.48
	Linear fluid (dielectric constant: 78.4, screening length: 5.74355 Bohr) occupying 0.804934 of unit cell:	Completed after 12 iterations at t[s]:    608.14
	FillingsUpdate:  mu: -0.244750400  nElectrons: 682.062322
	SubspaceRotationAdjust: set factor to 1.19
ElecMinimize: Iter:  10  G: -3964.499164269774610  |grad|_K:  1.280e-05  alpha:  5.451e-02  linmin:  1.286e-05  t[s]:    625.61
	Linear fluid (dielectric constant: 78.4, screening length: 5.74355 Bohr) occupying 0.805232 of unit cell:	Completed after 12 iterations at t[s]:    645.24
	Linear fluid (dielectric constant: 78.4, screening length: 5.74355 Bohr) occupying 0.805232 of unit cell:	Completed after 0 iterations at t[s]:    660.69
	FillingsUpdate:  mu: -0.244750400  nElectrons: 682.226808
	SubspaceRotationAdjust: set factor to 1.11
ElecMinimize: Iter:  11  G: -3964.501565214863604  |grad|_K:  1.213e-05  alpha:  5.448e-02  linmin:  2.669e-07  t[s]:    678.48
	Linear fluid (dielectric constant: 78.4, screening length: 5.74355 Bohr) occupying 0.805550 of unit cell:	Completed after 10 iterations at t[s]:    697.30
	Linear fluid (dielectric constant: 78.4, screening length: 5.74355 Bohr) occupying 0.805818 of unit cell:	Completed after 9 iterations at t[s]:    714.70
	FillingsUpdate:  mu: -0.244750400  nElectrons: 682.253464
	SubspaceRotationAdjust: set factor to 1.26
ElecMinimize: Iter:  12  G: -3964.505614875359697  |grad|_K:  1.187e-05  alpha:  1.013e-01  linmin: -6.149e-06  t[s]:    732.13
	Linear fluid (dielectric constant: 78.4, screening length: 5.74355 Bohr) occupying 0.806390 of unit cell:	Completed after 14 iterations at t[s]:    751.82
	Linear fluid (dielectric constant: 78.4, screening length: 5.74355 Bohr) occupying 0.806037 of unit cell:	Completed after 13 iterations at t[s]:    769.14
	FillingsUpdate:  mu: -0.244750400  nElectrons: 682.085003
	SubspaceRotationAdjust: set factor to 1.16
ElecMinimize: Iter:  13  G: -3964.507096393567281  |grad|_K:  6.216e-06  alpha:  3.827e-02  linmin: -1.032e-05  t[s]:    786.51
	Linear fluid (dielectric constant: 78.4, screening length: 5.74355 Bohr) occupying 0.806107 of unit cell:	Completed after 4 iterations at t[s]:    804.80
	Linear fluid (dielectric constant: 78.4, screening length: 5.74355 Bohr) occupying 0.806193 of unit cell:	Completed after 8 iterations at t[s]:    821.38
	FillingsUpdate:  mu: -0.244750400  nElectrons: 682.007431
	SubspaceRotationAdjust: set factor to 1.19
ElecMinimize: Iter:  14  G: -3964.507991416576715  |grad|_K:  7.473e-06  alpha:  8.539e-02  linmin:  1.071e-05  t[s]:    838.26
	Linear fluid (dielectric constant: 78.4, screening length: 5.74355 Bohr) occupying 0.806428 of unit cell:	Completed after 12 iterations at t[s]:    857.73
	Linear fluid (dielectric constant: 78.4, screening length: 5.74355 Bohr) occupying 0.806362 of unit cell:	Completed after 9 iterations at t[s]:    874.81
	FillingsUpdate:  mu: -0.244750400  nElectrons: 682.109701
	SubspaceRotationAdjust: set factor to 1.26
ElecMinimize: Iter:  15  G: -3964.508910668086173  |grad|_K:  5.636e-06  alpha:  6.105e-02  linmin:  1.394e-06  t[s]:    891.78
	Linear fluid (dielectric constant: 78.4, screening length: 5.74355 Bohr) occupying 0.806453 of unit cell:	Completed after 9 iterations at t[s]:    911.18
	Linear fluid (dielectric constant: 78.4, screening length: 5.74355 Bohr) occupying 0.806472 of unit cell:	Completed after 3 iterations at t[s]:    926.11
	FillingsUpdate:  mu: -0.244750400  nElectrons: 682.171021
	SubspaceRotationAdjust: set factor to 0.985
ElecMinimize: Iter:  16  G: -3964.509551513978749  |grad|_K:  6.069e-06  alpha:  7.444e-02  linmin: -1.459e-05  t[s]:    942.89
	Linear fluid (dielectric constant: 78.4, screening length: 5.74355 Bohr) occupying 0.806584 of unit cell:	Completed after 11 iterations at t[s]:    962.31
	Linear fluid (dielectric constant: 78.4, screening length: 5.74355 Bohr) occupying 0.806551 of unit cell:	Completed after 8 iterations at t[s]:    978.89
	FillingsUpdate:  mu: -0.244750400  nElectrons: 682.063548
	SubspaceRotationAdjust: set factor to 1.63
ElecMinimize: Iter:  17  G: -3964.510078541170515  |grad|_K:  3.329e-06  alpha:  5.229e-02  linmin:  1.285e-05  t[s]:    996.21
	Linear fluid (dielectric constant: 78.4, screening length: 5.74355 Bohr) occupying 0.806566 of unit cell:	Completed after 9 iterations at t[s]:   1015.49
[...]
ElecMinimize: 	Step failed to reduce G after 3 attempts. Quitting step.
ElecMinimize: 	Undoing step.
	Linear fluid (dielectric constant: 78.4, screening length: 5.74355 Bohr) occupying 0.806397 of unit cell:	Completed after 0 iterations at t[s]:   3310.30
ElecMinimize: 	Step failed: resetting search direction.
	FillingsUpdate:  mu: -0.244750400  nElectrons: 682.146431
	SubspaceRotationAdjust: set factor to 0.764
ElecMinimize: Iter:  53  G: -3964.511132076423564  |grad|_K:  2.029e-08  alpha:  7.925e-05
	Linear fluid (dielectric constant: 78.4, screening length: 5.74355 Bohr) occupying 0.806397 of unit cell:	Completed after 0 iterations at t[s]:   3344.83
	Linear fluid (dielectric constant: 78.4, screening length: 5.74355 Bohr) occupying 0.806397 of unit cell:	Completed after 0 iterations at t[s]:   3360.02
	FillingsUpdate:  mu: -0.244750400  nElectrons: 682.145959
	SubspaceRotationAdjust: set factor to 0.728
ElecMinimize: Iter:  54  G: -3964.511132091514355  |grad|_K:  1.628e-08  alpha:  1.351e-01  linmin:  3.517e-07  t[s]:   3377.36
	Linear fluid (dielectric constant: 78.4, screening length: 5.74355 Bohr) occupying 0.806397 of unit cell:	Completed after 0 iterations at t[s]:   3393.72
ElecMinimize: 	Predicted alpha/alphaT>3.000000, increasing alphaT to 4.054178e-01.
	Linear fluid (dielectric constant: 78.4, screening length: 5.74355 Bohr) occupying 0.806397 of unit cell:	Completed after 0 iterations at t[s]:   3408.42
	Linear fluid (dielectric constant: 78.4, screening length: 5.74355 Bohr) occupying 0.806397 of unit cell:	Completed after 2 iterations at t[s]:   3423.47
ElecMinimize: 	Step increased G by 8.374213e-07, reducing alpha to 9.194054e-02.
	Linear fluid (dielectric constant: 78.4, screening length: 5.74355 Bohr) occupying 0.806397 of unit cell:	Completed after 1 iterations at t[s]:   3452.39
	FillingsUpdate:  mu: -0.244750400  nElectrons: 682.145278
	SubspaceRotationAdjust: set factor to 0.47
ElecMinimize: Iter:  55  G: -3964.511132210790493  |grad|_K:  1.250e-07  alpha:  9.194e-02  linmin:  2.188e-04  t[s]:   3470.16
ElecMinimize: 	Bad step direction: g.d > 0.
ElecMinimize: 	Undoing step.
	Linear fluid (dielectric constant: 78.4, screening length: 5.74355 Bohr) occupying 0.806397 of unit cell:	Completed after 0 iterations at t[s]:   3486.92
ElecMinimize: 	Step failed: resetting search direction.
	FillingsUpdate:  mu: -0.244750400  nElectrons: 682.145278
	SubspaceRotationAdjust: set factor to 0.341
ElecMinimize: Iter:  56  G: -3964.511132210705910  |grad|_K:  1.064e-07  alpha:  0.000e+00
	Linear fluid (dielectric constant: 78.4, screening length: 5.74355 Bohr) occupying 0.806397 of unit cell:	Completed after 1 iterations at t[s]:   3521.54
	Linear fluid (dielectric constant: 78.4, screening length: 5.74355 Bohr) occupying 0.806397 of unit cell:	Completed after 0 iterations at t[s]:   3536.18
ElecMinimize: 	Step increased G by 7.391463e-09, reducing alpha to 3.103272e-03.
	Linear fluid (dielectric constant: 78.4, screening length: 5.74355 Bohr) occupying 0.806397 of unit cell:	Completed after 0 iterations at t[s]:   3565.61
	FillingsUpdate:  mu: -0.244750400  nElectrons: 682.145385
	SubspaceRotationAdjust: set factor to 0.186
ElecMinimize: Iter:  57  G: -3964.511132243017528  |grad|_K:  6.454e-08  alpha:  3.103e-03  linmin:  1.659e-03  t[s]:   3583.21
	Linear fluid (dielectric constant: 78.4, screening length: 5.74355 Bohr) occupying 0.806397 of unit cell:	Completed after 0 iterations at t[s]:   3600.21
ElecMinimize: 	Predicted alpha/alphaT>3.000000, increasing alphaT to 9.309815e-03.
	Linear fluid (dielectric constant: 78.4, screening length: 5.74355 Bohr) occupying 0.806397 of unit cell:	Completed after 0 iterations at t[s]:   3614.67
ElecMinimize: 	Predicted alpha/alphaT>3.000000, increasing alphaT to 2.792945e-02.
	Linear fluid (dielectric constant: 78.4, screening length: 5.74355 Bohr) occupying 0.806397 of unit cell:	Completed after 0 iterations at t[s]:   3627.62
ElecMinimize: 	Predicted alpha/alphaT>3.000000, increasing alphaT to 8.378834e-02.
	Linear fluid (dielectric constant: 78.4, screening length: 5.74355 Bohr) occupying 0.806397 of unit cell:	Completed after 2 iterations at t[s]:   3641.27
ElecMinimize: 	Step increased G by 4.605777e-07, reducing alpha to 2.560246e-02.
	Linear fluid (dielectric constant: 78.4, screening length: 5.74355 Bohr) occupying 0.806397 of unit cell:	Completed after 0 iterations at t[s]:   3670.54
ElecMinimize: 	Step increased G by 6.489199e-08, reducing alpha to 2.560246e-03.
	Linear fluid (dielectric constant: 78.4, screening length: 5.74355 Bohr) occupying 0.806397 of unit cell:	Completed after 0 iterations at t[s]:   3697.81
ElecMinimize: 	Step increased G by 3.725745e-08, reducing alpha to 2.560246e-04.
ElecMinimize: 	Step failed to reduce G after 3 attempts. Quitting step.
ElecMinimize: 	Undoing step.
	Linear fluid (dielectric constant: 78.4, screening length: 5.74355 Bohr) occupying 0.806397 of unit cell:	Completed after 0 iterations at t[s]:   3727.44
ElecMinimize: 	Step failed: resetting search direction.
	FillingsUpdate:  mu: -0.244750400  nElectrons: 682.145393
	SubspaceRotationAdjust: set factor to 0.152
ElecMinimize: Iter:  58  G: -3964.511132206038383  |grad|_K:  7.902e-08  alpha:  2.560e-04
	Linear fluid (dielectric constant: 78.4, screening length: 5.74355 Bohr) occupying 0.806397 of unit cell:	Completed after 0 iterations at t[s]:   3762.00
ElecMinimize: 	Predicted alpha/alphaT>3.000000, increasing alphaT to 9.309815e-03.
	Linear fluid (dielectric constant: 78.4, screening length: 5.74355 Bohr) occupying 0.806397 of unit cell:	Completed after 0 iterations at t[s]:   3776.57
ElecMinimize: 	Predicted alpha/alphaT>3.000000, increasing alphaT to 2.792945e-02.
	Linear fluid (dielectric constant: 78.4, screening length: 5.74355 Bohr) occupying 0.806397 of unit cell:	Completed after 0 iterations at t[s]:   3790.23
ElecMinimize: 	Predicted alpha/alphaT>3.000000, increasing alphaT to 8.378834e-02.
	Linear fluid (dielectric constant: 78.4, screening length: 5.74355 Bohr) occupying 0.806397 of unit cell:	Completed after 2 iterations at t[s]:   3804.11
ElecMinimize: 	Step increased G by 1.753359e-06, reducing alpha to 2.786381e-02.
	Linear fluid (dielectric constant: 78.4, screening length: 5.74355 Bohr) occupying 0.806397 of unit cell:	Completed after 2 iterations at t[s]:   3835.93
ElecMinimize: 	Step increased G by 7.907147e-08, reducing alpha to 2.786381e-03.
	Linear fluid (dielectric constant: 78.4, screening length: 5.74355 Bohr) occupying 0.806397 of unit cell:	Completed after 0 iterations at t[s]:   3875.42
ElecMinimize: 	Step increased G by 4.602543e-08, reducing alpha to 2.786381e-04.
ElecMinimize: 	Step failed to reduce G after 3 attempts. Quitting step.
ElecMinimize: 	Undoing step.
	Linear fluid (dielectric constant: 78.4, screening length: 5.74355 Bohr) occupying 0.806397 of unit cell:	Completed after 0 iterations at t[s]:   3904.27
ElecMinimize: 	Step failed along negative gradient direction.
ElecMinimize: Probably at roundoff error limit. (Stopping)
Setting wave functions to eigenvectors of Hamiltonian

# Ionic positions in lattice coordinates:
ion Cu   0.346383084799864   0.255519257144702   0.525792997169667 0
ion Cu   0.096383084799864   0.494480741405298   0.525792997169667 0
ion Cu   0.153616416050136   0.244480741405298   0.474207002830333 0
ion Cu   0.403616416050136   0.005519257144702   0.474207002830333 0
ion Cu   0.846383084799864   0.255519257144702   0.525792997169667 0
ion Cu   0.596383084799864   0.494480741405298   0.525792997169667 0
ion Cu   0.653616416050136   0.244480741405298   0.474207002830333 0
ion Cu   0.903616416050136   0.005519257144702   0.474207002830333 0
ion Cu   0.346383084799864   0.755519257144702   0.525792997169667 0
ion Cu   0.096383084799864   0.994480741405298   0.525792997169667 0
ion Cu   0.153616416050136   0.744480741405298   0.474207002830333 0
ion Cu   0.403616416050136   0.505519257144702   0.474207002830333 0
ion Cu   0.846383084799864   0.755519257144702   0.525792997169667 0
ion Cu   0.596383084799864   0.994480741405298   0.525792997169667 0
ion Cu   0.653616416050136   0.744480741405298   0.474207002830333 0
ion Cu   0.903616416050136   0.505519257144702   0.474207002830333 0
ion Te   0.276791888554764   0.104323510122637   0.576228202758869 0
ion Te   0.223207612295236   0.395676488427364   0.423771797241131 0
ion Te   0.473207612295236   0.354323510122637   0.423771797241131 0
ion Te   0.026791888554764   0.145676488427364   0.576228202758869 0
ion Te   0.776791888554764   0.104323510122637   0.576228202758869 0
ion Te   0.723207612295236   0.395676488427364   0.423771797241131 0
ion Te   0.973207612295236   0.354323510122637   0.423771797241131 0
ion Te   0.526791888554764   0.145676488427364   0.576228202758869 0
ion Te   0.276791888554764   0.604323510122637   0.576228202758869 0
ion Te   0.223207612295236   0.895676488427364   0.423771797241131 0
ion Te   0.473207612295236   0.854323510122637   0.423771797241131 0
ion Te   0.026791888554764   0.645676488427364   0.576228202758869 0
ion Te   0.776791888554764   0.604323510122637   0.576228202758869 0
ion Te   0.723207612295236   0.895676488427364   0.423771797241131 0
ion Te   0.973207612295236   0.854323510122637   0.423771797241131 0
ion Te   0.526791888554764   0.645676488427364   0.576228202758869 0
ion O   0.304541183535366   0.066573592817669   0.481919801904477 0
ion O   0.259842265305348   0.301095962022295   0.457849433595123 0
ion O   0.399635892826124   0.175027794497781   0.577736103561032 0
ion O   0.490157235544652   0.051095962022295   0.542150566404877 0
ion O   0.350363608023876   0.425027794497781   0.422263896438968 0
ion O   0.149635892826124   0.074972204052219   0.577736103561032 0
ion O   0.445458317314634   0.316573592817669   0.518080198095523 0
ion O   0.195458317314634   0.433426405732331   0.518080198095523 0
ion O   0.009842265305348   0.448904036527705   0.457849433595123 0
ion O   0.240157235544652   0.198904036527705   0.542150566404877 0
ion O   0.054541183535366   0.183426405732331   0.481919801904477 0
ion O   0.100363608023876   0.324972204052218   0.422263896438968 0
ion O   0.804541183535366   0.066573592817669   0.481919801904477 0
ion O   0.759842265305348   0.301095962022295   0.457849433595123 0
ion O   0.899635892826124   0.175027794497781   0.577736103561032 0
ion O   0.990157235544652   0.051095962022295   0.542150566404877 0
ion O   0.850363608023876   0.425027794497781   0.422263896438968 0
ion O   0.649635892826124   0.074972204052219   0.577736103561032 0
ion O   0.945458317314634   0.316573592817669   0.518080198095523 0
ion O   0.695458317314634   0.433426405732331   0.518080198095523 0
ion O   0.509842265305348   0.448904036527705   0.457849433595123 0
ion O   0.740157235544652   0.198904036527705   0.542150566404877 0
ion O   0.554541183535366   0.183426405732331   0.481919801904477 0
ion O   0.600363608023876   0.324972204052218   0.422263896438968 0
ion O   0.304541183535366   0.566573592817669   0.481919801904477 0
ion O   0.259842265305348   0.801095962022295   0.457849433595123 0
ion O   0.399635892826124   0.675027794497781   0.577736103561032 0
ion O   0.490157235544652   0.551095962022295   0.542150566404877 0
ion O   0.350363608023876   0.925027794497781   0.422263896438968 0
ion O   0.149635892826124   0.574972204052218   0.577736103561032 0
ion O   0.445458317314634   0.816573592817669   0.518080198095523 0
ion O   0.195458317314634   0.933426405732331   0.518080198095523 0
ion O   0.009842265305348   0.948904036527705   0.457849433595123 0
ion O   0.240157235544652   0.698904036527705   0.542150566404877 0
ion O   0.054541183535366   0.683426405732331   0.481919801904477 0
ion O   0.100363608023876   0.824972204052218   0.422263896438968 0
ion O   0.804541183535366   0.566573592817669   0.481919801904477 0
ion O   0.759842265305348   0.801095962022295   0.457849433595123 0
ion O   0.899635892826124   0.675027794497781   0.577736103561032 0
ion O   0.990157235544652   0.551095962022295   0.542150566404877 0
ion O   0.850363608023876   0.925027794497781   0.422263896438968 0
ion O   0.649635892826124   0.574972204052218   0.577736103561032 0
ion O   0.945458317314634   0.816573592817669   0.518080198095523 0
ion O   0.695458317314634   0.933426405732331   0.518080198095523 0
ion O   0.509842265305348   0.948904036527705   0.457849433595123 0
ion O   0.740157235544652   0.698904036527705   0.542150566404877 0
ion O   0.554541183535366   0.683426405732331   0.481919801904477 0
ion O   0.600363608023876   0.824972204052218   0.422263896438968 0


# Forces in Lattice coordinates:
force Cu  -0.117337223005575  -0.137420335360383   0.063047003903042 0
force Cu  -0.117337223005547   0.137420335360411   0.063047003902985 0
force Cu   0.117337223005604   0.137420335360425  -0.063047003902871 0
force Cu   0.117337223005604  -0.137420335360411  -0.063047003902928 0
force Cu  -0.117337223005604  -0.137420335360425   0.063047003902928 0
force Cu  -0.117337223005575   0.137420335360425   0.063047003903042 0
force Cu   0.117337223005575   0.137420335360397  -0.063047003902928 0
force Cu   0.117337223005547  -0.137420335360411  -0.063047003902928 0
force Cu  -0.117337223005547  -0.137420335360425   0.063047003903042 0
force Cu  -0.117337223005575   0.137420335360411   0.063047003902985 0
force Cu   0.117337223005547   0.137420335360382  -0.063047003902985 0
force Cu   0.117337223005604  -0.137420335360411  -0.063047003902928 0
force Cu  -0.117337223005632  -0.137420335360411   0.063047003902928 0
force Cu  -0.117337223005575   0.137420335360425   0.063047003903042 0
force Cu   0.117337223005575   0.137420335360425  -0.063047003902928 0
force Cu   0.117337223005519  -0.137420335360397  -0.063047003902928 0
force Te   0.312938909987395  -0.280172289789747   1.595805828502836 0
force Te  -0.312938909987400   0.280172289789733  -1.595805828502663 0
force Te  -0.312938909987396  -0.280172289789720  -1.595805828502719 0
force Te   0.312938909987400   0.280172289789746   1.595805828502837 0
force Te   0.312938909987400  -0.280172289789733   1.595805828502836 0
force Te  -0.312938909987402   0.280172289789719  -1.595805828502721 0
force Te  -0.312938909987398  -0.280172289789732  -1.595805828502720 0
force Te   0.312938909987402   0.280172289789733   1.595805828502780 0
force Te   0.312938909987398  -0.280172289789705   1.595805828502836 0
force Te  -0.312938909987400   0.280172289789733  -1.595805828502664 0
force Te  -0.312938909987398  -0.280172289789705  -1.595805828502721 0
force Te   0.312938909987399   0.280172289789747   1.595805828502780 0
force Te   0.312938909987407  -0.280172289789732   1.595805828502779 0
force Te  -0.312938909987396   0.280172289789733  -1.595805828502721 0
force Te  -0.312938909987400  -0.280172289789718  -1.595805828502606 0
force Te   0.312938909987399   0.280172289789747   1.595805828503006 0
force O   0.372320338954638  -0.657835452493150  -1.060155494699274 0
force O   0.167161827375714  -0.818906708911710   0.434840607533703 0
force O  -0.409228099304304   0.480934983649408  -0.275375010216675 0
force O  -0.167161827375698  -0.818906708911681  -0.434840607533590 0
force O   0.409228099304307   0.480934983649408   0.275375010216788 0
force O  -0.409228099304306  -0.480934983649408  -0.275375010216674 0
force O  -0.372320338954695  -0.657835452493193   1.060155494699387 0
force O  -0.372320338954668   0.657835452493179   1.060155494699266 0
force O   0.167161827375698   0.818906708911681   0.434840607533647 0
force O  -0.167161827375685   0.818906708911710  -0.434840607533647 0
force O   0.372320338954696   0.657835452493136  -1.060155494699302 0
force O   0.409228099304304  -0.480934983649408   0.275375010216789 0
force O   0.372320338954696  -0.657835452493179  -1.060155494699302 0
force O   0.167161827375700  -0.818906708911712   0.434840607533646 0
force O  -0.409228099304290   0.480934983649422  -0.275375010216675 0
force O  -0.167161827375684  -0.818906708911681  -0.434840607533646 0
force O   0.409228099304306   0.480934983649394   0.275375010216902 0
force O  -0.409228099304277  -0.480934983649408  -0.275375010216674 0
force O  -0.372320338954639  -0.657835452493164   1.060155494699330 0
force O  -0.372320338954666   0.657835452493193   1.060155494699359 0
force O   0.167161827375704   0.818906708911681   0.434840607533647 0
force O  -0.167161827375693   0.818906708911710  -0.434840607533703 0
force O   0.372320338954667   0.657835452493150  -1.060155494699327 0
force O   0.409228099304290  -0.480934983649408   0.275375010216788 0
force O   0.372320338954695  -0.657835452493164  -1.060155494699302 0
force O   0.167161827375700  -0.818906708911681   0.434840607533760 0
force O  -0.409228099304276   0.480934983649408  -0.275375010216788 0
force O  -0.167161827375692  -0.818906708911708  -0.434840607533646 0
force O   0.409228099304292   0.480934983649408   0.275375010216790 0
force O  -0.409228099304305  -0.480934983649408  -0.275375010216674 0
force O  -0.372320338954638  -0.657835452493164   1.060155494699359 0
force O  -0.372320338954639   0.657835452493179   1.060155494699330 0
force O   0.167161827375704   0.818906708911710   0.434840607533703 0
force O  -0.167161827375700   0.818906708911710  -0.434840607533647 0
force O   0.372320338954667   0.657835452493164  -1.060155494699330 0
force O   0.409228099304290  -0.480934983649422   0.275375010216674 0
force O   0.372320338954639  -0.657835452493164  -1.060155494699274 0
force O   0.167161827375707  -0.818906708911708   0.434840607533704 0
force O  -0.409228099304290   0.480934983649422  -0.275375010216674 0
force O  -0.167161827375697  -0.818906708911738  -0.434840607533646 0
force O   0.409228099304292   0.480934983649394   0.275375010216788 0
force O  -0.409228099304305  -0.480934983649394  -0.275375010216674 0
force O  -0.372320338954666  -0.657835452493179   1.060155494699330 0
force O  -0.372320338954667   0.657835452493179   1.060155494699327 0
force O   0.167161827375697   0.818906708911738   0.434840607533703 0
force O  -0.167161827375692   0.818906708911710  -0.434840607533761 0
force O   0.372320338954697   0.657835452493164  -1.060155494699302 0
force O   0.409228099304290  -0.480934983649408   0.275375010216788 0

# Energy components:
   A_diel =       -0.5375125389382701
   Eewald =    11989.7369599193498289
       EH =    15472.6872571206731664
     Eloc =   -32444.1067982284221216
      Enl =      648.9724377878906125
      Exc =     -598.0338614247300484
 Exc_core =       83.1532991634010159
       KE =      716.6807302863096538
  MuShift =        0.0585380844545547
-------------------------------------
     Etot =    -4131.3889498300113701
       TS =        0.0775442354287297
-------------------------------------
        F =    -4131.4664940654402017
      muN =     -166.9553619050983286
-------------------------------------
        G =    -3964.5111321603417309

IonicMinimize: Iter:   0  G: -3964.511132160341731  |grad|_K:  0.000e+00  t[s]:   3937.57
IonicMinimize: Converged (|grad|_K<1.000000e-04).

#--- Lowdin population analysis ---
# oxidation-state Cu +0.430 +0.430 +0.430 +0.430 +0.430 +0.430 +0.430 +0.430 +0.430 +0.430 +0.430 +0.430 +0.430 +0.430 +0.430 +0.430
# oxidation-state Te +1.979 +1.979 +1.979 +1.979 +1.979 +1.979 +1.979 +1.979 +1.979 +1.979 +1.979 +1.979 +1.979 +1.979 +1.979 +1.979
# oxidation-state O -0.613 -0.511 -0.661 -0.511 -0.661 -0.661 -0.613 -0.613 -0.511 -0.511 -0.613 -0.661 -0.613 -0.511 -0.661 -0.511 -0.661 -0.661 -0.613 -0.613 -0.511 -0.511 -0.613 -0.661 -0.613 -0.511 -0.661 -0.511 -0.661 -0.661 -0.613 -0.613 -0.511 -0.511 -0.613 -0.661 -0.613 -0.511 -0.661 -0.511 -0.661 -0.661 -0.613 -0.613 -0.511 -0.511 -0.613 -0.661


Dumping 'NbTe2.fillings' ... done
Dumping 'NbTe2.wfns' ... done
Dumping 'NbTe2.fluidState' ... done
Dumping 'NbTe2.eigenvals' ... done
End date and time: Fri Jul 17 08:25:20 2020  (Duration: 0-1:05:54.01)
Done!
