
*************** JDFTx 1.5.0  ***************

Start date and time: Thu Apr 15 13:10:14 2021
Executable jdftx_gpu with command-line: -i Charged.in -o Charged.out
Running on hosts (process indices):  amax (0-6)
Divided in process groups (process indices):  0 (0)  1 (1)  2 (2)  3 (3)  4 (4)  5 (5)  6 (6)
gpuInit: Found compatible cuda device 0 'Tesla K80'
gpuInit: Found compatible cuda device 1 'Tesla K80'
gpuInit: Found compatible cuda device 2 'Tesla K80'
gpuInit: Found compatible cuda device 3 'Tesla K80'
gpuInit: Found compatible cuda device 4 'Tesla K80'
gpuInit: Found compatible cuda device 5 'Tesla K80'
gpuInit: Found compatible cuda device 6 'Tesla K80'
gpuInit: Selected device 0
Resource initialization completed at t[s]:      3.48
Run totals: 7 processes, 24 threads, 7 GPUs


Input parsed successfully to the following command list (including defaults):

basis kpoint-dependent
cache-projectors no
coords-type Lattice
core-overlap-check none
coulomb-interaction Slab 001
coulomb-truncation-embed 0.5 0.5 0.5
davidson-band-ratio 1.1
dump End State
dump-name NbTe2.$VAR
elec-cutoff 20
elec-eigen-algo Davidson
elec-ex-corr gga-PBE
elec-initial-charge -1.000000
elec-smearing Gauss 0.0073499
electronic-minimize  \
	dirUpdateScheme      FletcherReeves \
	linminMethod         DirUpdateRecommended \
	nIterations          200 \
	history              15 \
	knormThreshold       0 \
	energyDiffThreshold  1e-08 \
	nEnergyDiff          2 \
	alphaTstart          1 \
	alphaTmin            1e-10 \
	updateTestStepSize   yes \
	alphaTreduceFactor   0.1 \
	alphaTincreaseFactor 3 \
	nAlphaAdjustMax      3 \
	wolfeEnergy          0.0001 \
	wolfeGradient        0.9 \
	fdTest               no
exchange-regularization WignerSeitzTruncated
fluid LinearPCM 298.000000 1.013250
fluid-anion F- 1 MeanFieldLJ \
	epsBulk 1 \
	pMol 0 \
	epsInf 1 \
	Pvap 0 \
	sigmaBulk 0 \
	Rvdw 2.24877 \
	Res 0 \
	tauNuc 343133
fluid-cation Na+ 1 MeanFieldLJ \
	epsBulk 1 \
	pMol 0 \
	epsInf 1 \
	Pvap 0 \
	sigmaBulk 0 \
	Rvdw 2.19208 \
	Res 0 \
	tauNuc 343133
fluid-ex-corr lda-TF lda-PZ
fluid-gummel-loop 10 1.000000e-05
fluid-minimize  \
	dirUpdateScheme      PolakRibiere \
	linminMethod         DirUpdateRecommended \
	nIterations          400 \
	history              15 \
	knormThreshold       1e-11 \
	energyDiffThreshold  0 \
	nEnergyDiff          2 \
	alphaTstart          1 \
	alphaTmin            1e-10 \
	updateTestStepSize   yes \
	alphaTreduceFactor   0.1 \
	alphaTincreaseFactor 3 \
	nAlphaAdjustMax      6 \
	wolfeEnergy          0.0001 \
	wolfeGradient        0.9 \
	fdTest               no
fluid-solvent H2O 55.338 ScalarEOS \
	epsBulk 78.4 \
	pMol 0.92466 \
	epsInf 1.77 \
	Pvap 1.06736e-10 \
	sigmaBulk 4.62e-05 \
	Rvdw 2.61727 \
	Res 1.42 \
	tauNuc 343133 \
	poleEl 15 7 1
forces-output-coords Positions
initial-state NbTe2.$VAR
ion Mo   0.166666670266667   0.083333326383333   0.558556097997901 1
ion Mo   0.083333336933333   0.166666659716667   0.441447899802099 1
ion Mo   0.416666670266667   0.083333326383333   0.558556097997901 1
ion Mo   0.333333336933333   0.166666659716667   0.441447899802099 1
ion Mo   0.666666670266667   0.083333326383333   0.558556097997901 1
ion Mo   0.583333336933333   0.166666659716667   0.441447899802099 1
ion Mo   0.916666670266667   0.083333326383333   0.558556097997901 1
ion Mo   0.833333336933333   0.166666659716667   0.441447899802099 1
ion Mo   0.166666670266667   0.333333326383333   0.558556097997901 1
ion Mo   0.083333336933333   0.416666659716667   0.441447899802099 1
ion Mo   0.416666670266667   0.333333326383333   0.558556097997901 1
ion Mo   0.333333336933333   0.416666659716667   0.441447899802099 1
ion Mo   0.666666670266667   0.333333326383333   0.558556097997901 1
ion Mo   0.583333336933333   0.416666659716667   0.441447899802099 1
ion Mo   0.916666670266667   0.333333326383333   0.558556097997901 1
ion Mo   0.833333336933333   0.416666659716667   0.441447899802099 1
ion Mo   0.166666670266667   0.583333326383333   0.558556097997901 1
ion Mo   0.083333336933333   0.666666659716667   0.441447899802099 1
ion Mo   0.416666670266667   0.583333326383333   0.558556097997901 1
ion Mo   0.333333336933333   0.666666659716667   0.441447899802099 1
ion Mo   0.666666670266667   0.583333326383333   0.558556097997901 1
ion Mo   0.583333336933333   0.666666659716667   0.441447899802099 1
ion Mo   0.916666670266667   0.583333326383333   0.558556097997901 1
ion Mo   0.833333336933333   0.666666659716667   0.441447899802099 1
ion Mo   0.166666670266667   0.833333326383333   0.558556097997901 1
ion Mo   0.083333336933333   0.916666659716667   0.441447899802099 1
ion Mo   0.416666670266667   0.833333326383333   0.558556097997901 1
ion Mo   0.333333336933333   0.916666659716667   0.441447899802099 1
ion Mo   0.666666670266667   0.833333326383333   0.558556097997901 1
ion Mo   0.583333336933333   0.916666659716667   0.441447899802099 1
ion Mo   0.916666670266667   0.833333326383333   0.558556097997901 1
ion Mo   0.833333336933333   0.916666659716667   0.441447899802099 1
ion C   0.000000003600000  -0.000000006950000   0.500001998900000 1
ion C   0.250000003600000  -0.000000006950000   0.500001998900000 1
ion C   0.500000003600000  -0.000000006950000   0.500001998900000 1
ion C   0.750000003600000  -0.000000006950000   0.500001998900000 1
ion C   0.000000003600000   0.249999993050000   0.500001998900000 1
ion C   0.250000003600000   0.249999993050000   0.500001998900000 1
ion C   0.500000003600000   0.249999993050000   0.500001998900000 1
ion C   0.750000003600000   0.249999993050000   0.500001998900000 1
ion C   0.000000003600000   0.499999993050000   0.500001998900000 1
ion C   0.250000003600000   0.499999993050000   0.500001998900000 1
ion C   0.500000003600000   0.499999993050000   0.500001998900000 1
ion C   0.750000003600000   0.499999993050000   0.500001998900000 1
ion C   0.000000003600000   0.749999993050000   0.500001998900000 1
ion C   0.250000003600000   0.749999993050000   0.500001998900000 1
ion C   0.500000003600000   0.749999993050000   0.500001998900000 1
ion C   0.750000003600000   0.749999993050000   0.500001998900000 1
ion O   0.083333336933333   0.166666659716667   0.616517487420202 1
ion O   0.166666670266667   0.083333326383333   0.383486510379798 1
ion O   0.333333336933333   0.166666659716667   0.616517487420202 1
ion O   0.416666670266667   0.083333326383333   0.383486510379798 1
ion O   0.583333336933333   0.166666659716667   0.616517487420202 1
ion O   0.666666670266667   0.083333326383333   0.383486510379798 1
ion O   0.833333336933333   0.166666659716667   0.616517487420202 1
ion O   0.916666670266667   0.083333326383333   0.383486510379798 1
ion O   0.083333336933333   0.416666659716667   0.616517487420202 1
ion O   0.166666670266667   0.333333326383333   0.383486510379798 1
ion O   0.333333336933333   0.416666659716667   0.616517487420202 1
ion O   0.416666670266667   0.333333326383333   0.383486510379798 1
ion O   0.583333336933333   0.416666659716667   0.616517487420202 1
ion O   0.666666670266667   0.333333326383333   0.383486510379798 1
ion O   0.833333336933333   0.416666659716667   0.616517487420202 1
ion O   0.916666670266667   0.333333326383333   0.383486510379798 1
ion O   0.083333336933333   0.666666659716667   0.616517487420202 1
ion O   0.166666670266667   0.583333326383333   0.383486510379798 1
ion O   0.333333336933333   0.666666659716667   0.616517487420202 1
ion O   0.416666670266667   0.583333326383333   0.383486510379798 1
ion O   0.583333336933333   0.666666659716667   0.616517487420202 1
ion O   0.666666670266667   0.583333326383333   0.383486510379798 1
ion O   0.833333336933333   0.666666659716667   0.616517487420202 1
ion O   0.916666670266667   0.583333326383333   0.383486510379798 1
ion O   0.083333336933333   0.916666659716667   0.616517487420202 1
ion O   0.166666670266667   0.833333326383333   0.383486510379798 1
ion O   0.333333336933333   0.916666659716667   0.616517487420202 1
ion O   0.416666670266667   0.833333326383333   0.383486510379798 1
ion O   0.583333336933333   0.916666659716667   0.616517487420202 1
ion O   0.666666670266667   0.833333326383333   0.383486510379798 1
ion O   0.833333336933333   0.916666659716667   0.616517487420202 1
ion O   0.916666670266667   0.833333326383333   0.383486510379798 1
ion-species GBRV/$ID_pbe.uspp
ion-width Ecut
ionic-minimize  \
	dirUpdateScheme      L-BFGS \
	linminMethod         DirUpdateRecommended \
	nIterations          500 \
	history              15 \
	knormThreshold       0.0001 \
	energyDiffThreshold  1e-06 \
	nEnergyDiff          2 \
	alphaTstart          1 \
	alphaTmin            1e-10 \
	updateTestStepSize   yes \
	alphaTreduceFactor   0.1 \
	alphaTincreaseFactor 3 \
	nAlphaAdjustMax      3 \
	wolfeEnergy          0.0001 \
	wolfeGradient        0.9 \
	fdTest               no
kpoint   0.000000000000   0.000000000000   0.000000000000  1.00000000000000
kpoint-folding 3 3 1 
latt-move-scale 1 1 1
latt-scale 1.88973 1.88973 1.88973 
lattice Triclinic 12.2054 12.2053 19.4677 90 90 120
lattice-minimize  \
	dirUpdateScheme      L-BFGS \
	linminMethod         DirUpdateRecommended \
	nIterations          0 \
	history              15 \
	knormThreshold       0 \
	energyDiffThreshold  1e-06 \
	nEnergyDiff          2 \
	alphaTstart          1 \
	alphaTmin            1e-10 \
	updateTestStepSize   yes \
	alphaTreduceFactor   0.1 \
	alphaTincreaseFactor 3 \
	nAlphaAdjustMax      3 \
	wolfeEnergy          0.0001 \
	wolfeGradient        0.9 \
	fdTest               no
lcao-params -1 1e-06 0.0073499
pcm-variant CANDLE
spintype no-spin
subspace-rotation-factor 1 yes
symmetries automatic
symmetry-threshold 0.0005



---------- Setting up symmetries ----------

Found 24 point-group symmetries of the bravais lattice
Found 192 space-group symmetries with basis
Applied RMS atom displacement 1.21207e-14 bohrs to make symmetries exact.

---------- Initializing the Grid ----------
R = 
[    23.0649   -11.5324          0  ]
[          0    19.9746          0  ]
[          0          0    36.7886  ]
unit cell volume = 16948.9
G =
[   0.272414   0.157279         -0  ]
[          0   0.314559          0  ]
[          0         -0   0.170792  ]
Minimum fftbox size, Smin = [  96  96  152  ]
Chosen fftbox size, S = [  96  96  160  ]

---------- Exchange Correlation functional ----------
Initalized PBE GGA exchange.
Initalized PBE GGA correlation.

---------- Setting up pseudopotentials ----------
Width of ionic core gaussian charges (only for fluid interactions / plotting) set to 0.397384

Reading pseudopotential file '/home/guoxy/vasp/jdftx-1.5.0/build/pseudopotentials/GBRV/mo_pbe.uspp':
  Title: Mo.  Created by USPP 7.3.6 on 14-9-2013
  Reference state energy: -69.261020.  14 valence electrons in orbitals:
    |400>  occupation: 2  eigenvalue: -2.465796
    |410>  occupation: 6  eigenvalue: -1.510132
    |420>  occupation: 4  eigenvalue: -0.207728
    |500>  occupation: 2  eigenvalue: -0.179278
    |510>  occupation: 0  eigenvalue: -0.052696
  lMax: 2  lLocal: 3  QijEcut: 5
  6 projectors sampled on a log grid with 629 points:
    l: 0  eig: -2.465797  rCut: 1.8
    l: 0  eig: -0.179280  rCut: 1.8
    l: 1  eig: -1.510132  rCut: 2
    l: 1  eig: 0.150000  rCut: 2
    l: 2  eig: -0.052696  rCut: 2.2
    l: 2  eig: 0.150000  rCut: 2.2
  Partial core density with radius 1.2
  Transforming core density to a uniform radial grid of dG=0.02 with 1481 points.
  Transforming local potential to a uniform radial grid of dG=0.02 with 1481 points.
  Transforming nonlocal projectors to a uniform radial grid of dG=0.02 with 432 points.
  Transforming density augmentations to a uniform radial grid of dG=0.02 with 1481 points.
  Transforming atomic orbitals to a uniform radial grid of dG=0.02 with 432 points.
  Core radius for overlap checks: 2.20 bohrs.

Reading pseudopotential file '/home/guoxy/vasp/jdftx-1.5.0/build/pseudopotentials/GBRV/c_pbe.uspp':
  Title: C.  Created by USPP 7.3.6 on 3-2-2014
  Reference state energy: -5.406344.  4 valence electrons in orbitals:
    |200>  occupation: 2  eigenvalue: -0.504890
    |210>  occupation: 2  eigenvalue: -0.194356
  lMax: 1  lLocal: 2  QijEcut: 5
  4 projectors sampled on a log grid with 503 points:
    l: 0  eig: -0.504890  rCut: 1.3
    l: 0  eig: 0.000000  rCut: 1.3
    l: 1  eig: -0.194357  rCut: 1.3
    l: 1  eig: 0.000000  rCut: 1.3
  Partial core density with radius 1.1
  Transforming core density to a uniform radial grid of dG=0.02 with 1481 points.
  Transforming local potential to a uniform radial grid of dG=0.02 with 1481 points.
  Transforming nonlocal projectors to a uniform radial grid of dG=0.02 with 432 points.
  Transforming density augmentations to a uniform radial grid of dG=0.02 with 1481 points.
  Transforming atomic orbitals to a uniform radial grid of dG=0.02 with 432 points.
  Core radius for overlap checks: 1.30 bohrs.

Reading pseudopotential file '/home/guoxy/vasp/jdftx-1.5.0/build/pseudopotentials/GBRV/o_pbe.uspp':
  Title: O.  Created by USPP 7.3.6 on 3-2-2014
  Reference state energy: -15.894388.  6 valence electrons in orbitals:
    |200>  occupation: 2  eigenvalue: -0.878823
    |210>  occupation: 4  eigenvalue: -0.332131
  lMax: 2  lLocal: 2  QijEcut: 6
  5 projectors sampled on a log grid with 511 points:
    l: 0  eig: -0.878823  rCut: 1.25
    l: 0  eig: 0.000000  rCut: 1.25
    l: 1  eig: -0.332132  rCut: 1.25
    l: 1  eig: 0.000000  rCut: 1.25
    l: 2  eig: 1.000000  rCut: 1.25
  Partial core density with radius 0.7
  Transforming core density to a uniform radial grid of dG=0.02 with 1481 points.
  Transforming local potential to a uniform radial grid of dG=0.02 with 1481 points.
  Transforming nonlocal projectors to a uniform radial grid of dG=0.02 with 432 points.
  Transforming density augmentations to a uniform radial grid of dG=0.02 with 1481 points.
  Transforming atomic orbitals to a uniform radial grid of dG=0.02 with 432 points.
  Core radius for overlap checks: 1.25 bohrs.

Initialized 3 species with 80 total atoms.

Folded 1 k-points by 3x3x1 to 9 k-points.

---------- Setting up k-points, bands, fillings ----------
Reduced to 3 k-points under symmetry. 
Computing the number of bands and number of electrons
Calculating initial fillings.
nElectrons: 703.000000   nBands: 608   nStates: 3

----- Setting up reduced wavefunction bases (one per k-point) -----
average nbasis = 72392.333 , ideal nbasis = 72407.045

---------- Setting up coulomb interaction ----------
Fluid mode embedding: using embedded box, but periodic Coulomb kernel.
(Fluid response is responsible for (approximate) separation between periodic images.)
Setting up double-sized grid for truncated Coulomb potentials:
R = 
[    23.0649   -11.5324          0  ]
[          0    19.9746          0  ]
[          0          0    73.5772  ]
unit cell volume = 33897.8
G =
[   0.272414   0.157279         -0  ]
[          0   0.314559          0  ]
[          0         -0  0.0853958  ]
Chosen fftbox size, S = [  96  96  320  ]
Integer grid location selected as the embedding center:
   Grid: [  48  48  80  ]
   Lattice: [  0.5  0.5  0.5  ]
   Cartesian: [  5.76625  9.98729  18.3943  ]
Constructing Wigner-Seitz cell: 8 faces (6 quadrilaterals, 2 hexagons)
Range-separation parameter for embedded mesh potentials due to point charges: 0.618372 bohrs.

Initializing van der Waals corrections
	NOTE: vdW corrections apply only for interactions with fluid.
	Mo:  C6:  427.91 Eh-a0^6  R0: 3.097 a0
	 C:  C6:   30.35 Eh-a0^6  R0: 2.744 a0
	 O:  C6:   12.14 Eh-a0^6  R0: 2.536 a0

---------- Setting up ewald sum ----------
Optimum gaussian width for ewald sums = 6.219933 bohr.
Real space sum over 405 unit cells with max indices [  4  4  2  ]
Reciprocal space sum over 8775 terms with max indices [  7  7  19  ]

---------- Allocating electronic variables ----------
Initializing wave functions:  linear combination of atomic orbitals
Mo pseudo-atom occupations:   s ( 2 0 )  p ( 6 0 )  d ( 6 )
C pseudo-atom occupations:   s ( 2 )  p ( 2 )
O pseudo-atom occupations:   s ( 2 )  p ( 4 )
	FillingsUpdate:  mu: +3.620574228  nElectrons: 703.000000
LCAOMinimize: Iter:   0  F: -2299.7557856814387378  |grad|_K:  4.838e-02  alpha:  1.000e+00
	FillingsUpdate:  mu: -4.166371067  nElectrons: 703.000000
LCAOMinimize: Iter:   1  F: -2399.9358772364407741  |grad|_K:  3.401e-02  alpha:  4.636e-01  linmin:  9.214e-02  cgtest: -1.588e+00  t[s]:     72.16
LCAOMinimize: 	Bad step direction: g.d > 0.
LCAOMinimize: 	Undoing step.
LCAOMinimize: 	Step failed: resetting search direction.
	FillingsUpdate:  mu: -4.166371067  nElectrons: 703.000000
LCAOMinimize: Iter:   2  F: -2399.9358772364407741  |grad|_K:  3.401e-02  alpha:  0.000e+00
	FillingsUpdate:  mu: -1.891340339  nElectrons: 703.000000
LCAOMinimize: Iter:   3  F: -2714.9821691204037961  |grad|_K:  2.470e-02  alpha:  1.727e-01  linmin: -1.449e-01  cgtest:  4.690e-01  t[s]:    103.50
	FillingsUpdate:  mu: -0.372021464  nElectrons: 703.000000
LCAOMinimize: Iter:   4  F: -2784.3398538062206171  |grad|_K:  7.365e-03  alpha:  1.501e-01  linmin: -2.224e-01  cgtest:  5.023e-01  t[s]:    121.88
LCAOMinimize: Encountered beta<0, resetting CG.
LCAOMinimize: 	Predicted alpha/alphaT>3.000000, increasing alphaT to 4.502499e-01.
	FillingsUpdate:  mu: -0.326459734  nElectrons: 703.000000
LCAOMinimize: Iter:   5  F: -2788.4347758820258605  |grad|_K:  6.023e-03  alpha:  7.080e-02  linmin: -3.257e-01  cgtest:  9.084e-01  t[s]:    146.76
LCAOMinimize: Encountered beta<0, resetting CG.
LCAOMinimize: 	Predicted alpha/alphaT>3.000000, increasing alphaT to 2.124055e-01.
	FillingsUpdate:  mu: +0.010802879  nElectrons: 703.000000
LCAOMinimize: Iter:   6  F: -2792.2550003352498607  |grad|_K:  5.855e-03  alpha:  2.626e-01  linmin:  2.567e-01  cgtest: -4.126e-01  t[s]:    171.36
LCAOMinimize: 	Bad step direction: g.d > 0.
LCAOMinimize: 	Undoing step.
LCAOMinimize: 	Step failed: resetting search direction.
	FillingsUpdate:  mu: +0.010802879  nElectrons: 703.000000
LCAOMinimize: Iter:   7  F: -2792.2550003352498607  |grad|_K:  5.855e-03  alpha:  0.000e+00
	FillingsUpdate:  mu: -0.243591256  nElectrons: 703.000000
LCAOMinimize: Iter:   8  F: -2794.0954643366085293  |grad|_K:  9.307e-04  alpha:  1.337e-01  linmin:  2.292e-01  cgtest: -9.384e-01  t[s]:    203.06
	FillingsUpdate:  mu: -0.261240959  nElectrons: 703.000000
LCAOMinimize: Iter:   9  F: -2794.1389097798937655  |grad|_K:  9.457e-04  alpha:  2.939e-01  linmin:  2.211e-03  cgtest:  8.636e-01  t[s]:    221.87
	FillingsUpdate:  mu: -0.228107228  nElectrons: 703.000000
LCAOMinimize: Iter:  10  F: -2794.2100949091332041  |grad|_K:  1.639e-04  alpha:  1.340e-01  linmin: -1.042e-01  cgtest:  2.081e-01  t[s]:    240.33
LCAOMinimize: Encountered beta<0, resetting CG.
LCAOMinimize: 	Predicted alpha/alphaT>3.000000, increasing alphaT to 4.020985e-01.
	FillingsUpdate:  mu: -0.233587933  nElectrons: 703.000000
LCAOMinimize: Iter:  11  F: -2794.2170875205433731  |grad|_K:  8.643e-05  alpha:  4.684e-01  linmin:  3.273e-03  cgtest: -2.211e-02  t[s]:    265.16
	FillingsUpdate:  mu: -0.234450182  nElectrons: 703.000000
LCAOMinimize: Iter:  12  F: -2794.2187330133019714  |grad|_K:  3.161e-05  alpha:  3.981e-01  linmin:  1.453e-03  cgtest:  3.673e-02  t[s]:    283.41
	FillingsUpdate:  mu: -0.235838258  nElectrons: 703.000000
LCAOMinimize: Iter:  13  F: -2794.2188331224124340  |grad|_K:  1.598e-05  alpha:  1.808e-01  linmin:  2.168e-04  cgtest:  4.533e-03  t[s]:    302.04
LCAOMinimize: 	Predicted alpha/alphaT>3.000000, increasing alphaT to 5.424179e-01.
	FillingsUpdate:  mu: -0.235103211  nElectrons: 703.000000
LCAOMinimize: Iter:  14  F: -2794.2189102749298399  |grad|_K:  2.576e-06  alpha:  5.430e-01  linmin:  6.737e-04  cgtest: -5.597e-03  t[s]:    326.55
	FillingsUpdate:  mu: -0.235164665  nElectrons: 703.000000
LCAOMinimize: Iter:  15  F: -2794.2189112991591173  |grad|_K:  1.041e-06  alpha:  2.776e-01  linmin:  1.168e-05  cgtest:  1.230e-03  t[s]:    345.52
	FillingsUpdate:  mu: -0.235125625  nElectrons: 703.000000
LCAOMinimize: Iter:  16  F: -2794.2189114613079255  |grad|_K:  8.061e-07  alpha:  2.690e-01  linmin:  2.925e-05  cgtest: -2.754e-04  t[s]:    364.34
	FillingsUpdate:  mu: -0.235167308  nElectrons: 703.000000
LCAOMinimize: Iter:  17  F: -2794.2189116009562895  |grad|_K:  1.082e-07  alpha:  3.859e-01  linmin: -1.169e-03  cgtest:  1.825e-02  t[s]:    382.94
LCAOMinimize: Converged (|Delta F|<1.000000e-06 for 2 iters).
----- createFluidSolver() ----- (Fluid-side solver setup)
   Initializing fluid molecule 'H2O'
     Initializing site 'O'
       Electron density: proportional to exp(-r/0.36935)*erfc((r-0.51523)/0.36823) with norm 6.826
       Charge density: gaussian nuclear width 0.478731 with net site charge 0.826
       Polarizability: cuspless exponential with width 0.32 and norm 3.73
       Hard sphere radius: 2.57003 bohrs
       Positions in reference frame:
         [ +0.000000 +0.000000 +0.000000 ]
     Initializing site 'H'
       Electron density: proportional to exp(-r/0.34641)*erfc((r-0)/0.390882) with norm 0.587
       Charge density: gaussian nuclear width 0.377945 with net site charge -0.413
       Polarizability: cuspless exponential with width 0.39 and norm 3.3
       Positions in reference frame:
         [ +0.000000 -1.441945 +1.122523 ]
         [ +0.000000 +1.441945 +1.122523 ]
     Net charge: 0   dipole magnitude: 0.927204
     Initializing spherical shell mfKernel with radius 2.61727 Bohr
     deltaS corrections:
       site 'O': -7.54299
       site 'H': -6.83917
   Initializing fluid molecule 'Na+'
     Initializing site 'Na'
       Electron density: proportional to exp(-r/0.19682)*erfc((r-0.71491)/0.41314) with norm 8.1383
       Charge density: gaussian nuclear width 0.365347 with net site charge -1
       Hard sphere radius: 1.86327 bohrs
       Positions in reference frame:
         [ +0.000000 +0.000000 +0.000000 ]
     Net charge: -1   dipole magnitude: 0
     Initializing gaussian mfKernel with width: 1.55004 Bohr
     deltaS corrections:
       site 'Na': -22.3555
   Initializing fluid molecule 'F-'
     Initializing site 'F'
       Electron density: proportional to exp(-r/0.38886)*erfc((r-0)/0.438782) with norm 8
       Charge density: gaussian nuclear width 0.374796 with net site charge 1
       Hard sphere radius: 2.39995 bohrs
       Positions in reference frame:
         [ +0.000000 +0.000000 +0.000000 ]
     Net charge: 1   dipole magnitude: 0
     Initializing gaussian mfKernel with width: 1.59012 Bohr
     deltaS corrections:
       site 'F': -9.04335

Correction to mu due to finite nuclear width = -0.0206063
   Cavity determined by nc: 0.00142 and sigma: 0.707107
   Nonlocal vdW cavity from gaussian model electron density with norm = 8 and sigma = 0.993594 bohr
   Charge asymmetry in cavity with sensitivity pCavity = 36.5 e-bohr/Eh
   Electrostatic cavity expanded by eta = 1.46 bohrs
   Weighted density cavitation model constrained by Nbulk: 0.0049383 bohr^-3, Pvap: 3.14029 kPa, Rvdw: 2.61727 bohr and sigmaBulk: 4.62e-05 Eh/bohr^2 at T: 298 K.
   Weighted density dispersion model using vdW pair potentials with single solvent site with sqrtC6eff: 0.77 SI.


---- Citations for features of the code used in this run ----

   Software package:
      R. Sundararaman, K. Letchworth-Weaver, K.A. Schwarz, D. Gunceler, Y. Ozhabes and T.A. Arias, 'JDFTx: software for joint density-functional theory', SoftwareX 6, 278 (2017)

   gga-PBE exchange-correlation functional:
      J.P. Perdew, K. Burke and M. Ernzerhof, Phys. Rev. Lett. 77, 3865 (1996)

   Pseudopotentials:
      KF Garrity, JW Bennett, KM Rabe and D Vanderbilt, Comput. Mater. Sci. 81, 446 (2014)

   Truncated Coulomb potentials:
      R. Sundararaman and T.A. Arias, Phys. Rev. B 87, 165122 (2013)

   Van der Waals correction pair-potentials:
      S. Grimme, J. Comput. Chem. 27, 1787 (2006)

   Charge-asymmetric nonlocally-determined local-electric (CANDLE) solvation model:
      R. Sundararaman and W.A. Goddard III, J. Chem. Phys. 142, 064107 (2015)

   Total energy minimization with Auxiliary Hamiltonian:
      C. Freysoldt, S. Boeck, and J. Neugebauer, Phys. Rev. B 79, 241103(R) (2009)

This list may not be complete. Please suggest additional citations or
report any other bugs at https://github.com/shankar1729/jdftx/issues

Initialization completed successfully at t[s]:    387.94

Fluid solver invoked on fresh (partially random / LCAO) wavefunctions
Running a vacuum solve first:

-------- Initial electronic minimization -----------
	FillingsUpdate:  mu: -0.235167308  nElectrons: 703.000000
ElecMinimize: Iter:   0  F: -2794.218911600980846  |grad|_K:  1.503e-04  alpha:  1.000e+00
	FillingsUpdate:  mu: -0.147549167  nElectrons: 703.000000
	SubspaceRotationAdjust: set factor to 0.762
ElecMinimize: Iter:   1  F: -2796.058963674248844  |grad|_K:  1.123e-04  alpha:  6.133e-01  linmin:  2.416e-06  t[s]:    431.65
	FillingsUpdate:  mu: -0.226915448  nElectrons: 703.000000
	SubspaceRotationAdjust: set factor to 0.41
ElecMinimize: Iter:   2  F: -2796.409846678145641  |grad|_K:  6.467e-05  alpha:  2.589e-01  linmin:  1.225e-04  t[s]:    458.90
	FillingsUpdate:  mu: -0.195190026  nElectrons: 703.000000
	SubspaceRotationAdjust: set factor to 0.565
ElecMinimize: Iter:   3  F: -2796.590912720462711  |grad|_K:  3.104e-05  alpha:  3.657e-01  linmin:  1.598e-05  t[s]:    486.96
	FillingsUpdate:  mu: -0.193079238  nElectrons: 703.000000
	SubspaceRotationAdjust: set factor to 0.614
ElecMinimize: Iter:   4  F: -2796.644578205557082  |grad|_K:  1.700e-05  alpha:  4.251e-01  linmin:  1.406e-05  t[s]:    514.38
	FillingsUpdate:  mu: -0.201246682  nElectrons: 703.000000
	SubspaceRotationAdjust: set factor to 0.709
ElecMinimize: Iter:   5  F: -2796.662462319180577  |grad|_K:  1.103e-05  alpha:  4.690e-01  linmin: -1.224e-06  t[s]:    541.96
	FillingsUpdate:  mu: -0.196764301  nElectrons: 703.000000
	SubspaceRotationAdjust: set factor to 0.867
ElecMinimize: Iter:   6  F: -2796.668682132879894  |grad|_K:  6.430e-06  alpha:  3.845e-01  linmin:  2.601e-06  t[s]:    568.22
	FillingsUpdate:  mu: -0.195504682  nElectrons: 703.000000
	SubspaceRotationAdjust: set factor to 1
ElecMinimize: Iter:   7  F: -2796.671361142800379  |grad|_K:  3.849e-06  alpha:  4.912e-01  linmin:  1.173e-05  t[s]:    596.06
	FillingsUpdate:  mu: -0.197312090  nElectrons: 703.000000
	SubspaceRotationAdjust: set factor to 0.82
ElecMinimize: Iter:   8  F: -2796.672021034217778  |grad|_K:  2.362e-06  alpha:  3.401e-01  linmin:  8.524e-08  t[s]:    624.21
	FillingsUpdate:  mu: -0.196160867  nElectrons: 703.000000
	SubspaceRotationAdjust: set factor to 0.558
ElecMinimize: Iter:   9  F: -2796.672237653222055  |grad|_K:  1.311e-06  alpha:  2.925e-01  linmin:  4.815e-07  t[s]:    651.95
	FillingsUpdate:  mu: -0.196686485  nElectrons: 703.000000
	SubspaceRotationAdjust: set factor to 0.662
ElecMinimize: Iter:  10  F: -2796.672319792884991  |grad|_K:  7.700e-07  alpha:  3.604e-01  linmin:  1.059e-07  t[s]:    679.85
	FillingsUpdate:  mu: -0.196872730  nElectrons: 703.000000
	SubspaceRotationAdjust: set factor to 0.774
ElecMinimize: Iter:  11  F: -2796.672353321232094  |grad|_K:  5.115e-07  alpha:  4.264e-01  linmin:  2.086e-07  t[s]:    707.69
	FillingsUpdate:  mu: -0.196595299  nElectrons: 703.000000
	SubspaceRotationAdjust: set factor to 0.828
ElecMinimize: Iter:  12  F: -2796.672366824328037  |grad|_K:  3.564e-07  alpha:  3.892e-01  linmin:  1.727e-07  t[s]:    735.01
	FillingsUpdate:  mu: -0.196694454  nElectrons: 703.000000
	SubspaceRotationAdjust: set factor to 0.884
ElecMinimize: Iter:  13  F: -2796.672374342141666  |grad|_K:  2.338e-07  alpha:  4.466e-01  linmin:  4.712e-07  t[s]:    762.39
	FillingsUpdate:  mu: -0.196703226  nElectrons: 703.000000
	SubspaceRotationAdjust: set factor to 0.956
ElecMinimize: Iter:  14  F: -2796.672377196844081  |grad|_K:  1.480e-07  alpha:  3.943e-01  linmin:  5.902e-08  t[s]:    789.94
	FillingsUpdate:  mu: -0.196654781  nElectrons: 703.000000
	SubspaceRotationAdjust: set factor to 0.89
ElecMinimize: Iter:  15  F: -2796.672378346552250  |grad|_K:  1.069e-07  alpha:  3.960e-01  linmin: -2.242e-08  t[s]:    817.35
	FillingsUpdate:  mu: -0.196707024  nElectrons: 703.000000
	SubspaceRotationAdjust: set factor to 0.795
ElecMinimize: Iter:  16  F: -2796.672378887464674  |grad|_K:  7.548e-08  alpha:  3.565e-01  linmin:  1.133e-08  t[s]:    844.73
	FillingsUpdate:  mu: -0.196673069  nElectrons: 703.000000
	SubspaceRotationAdjust: set factor to 0.872
ElecMinimize: Iter:  17  F: -2796.672379197946157  |grad|_K:  5.209e-08  alpha:  4.110e-01  linmin:  3.780e-08  t[s]:    872.42
	FillingsUpdate:  mu: -0.196673998  nElectrons: 703.000000
	SubspaceRotationAdjust: set factor to 1.02
ElecMinimize: Iter:  18  F: -2796.672379336675931  |grad|_K:  3.673e-08  alpha:  3.859e-01  linmin:  5.359e-08  t[s]:    899.82
	FillingsUpdate:  mu: -0.196685948  nElectrons: 703.000000
	SubspaceRotationAdjust: set factor to 1.01
ElecMinimize: Iter:  19  F: -2796.672379407477365  |grad|_K:  2.359e-08  alpha:  3.957e-01  linmin:  2.493e-08  t[s]:    926.75
	FillingsUpdate:  mu: -0.196673089  nElectrons: 703.000000
	SubspaceRotationAdjust: set factor to 0.782
ElecMinimize: Iter:  20  F: -2796.672379429393004  |grad|_K:  1.653e-08  alpha:  2.976e-01  linmin:  2.011e-08  t[s]:    953.79
	FillingsUpdate:  mu: -0.196680244  nElectrons: 703.000000
	SubspaceRotationAdjust: set factor to 0.796
ElecMinimize: Iter:  21  F: -2796.672379441782141  |grad|_K:  9.602e-09  alpha:  3.376e-01  linmin: -1.183e-07  t[s]:    981.31
	FillingsUpdate:  mu: -0.196681549  nElectrons: 703.000000
	SubspaceRotationAdjust: set factor to 0.926
ElecMinimize: Iter:  22  F: -2796.672379447179082  |grad|_K:  6.747e-09  alpha:  4.387e-01  linmin: -2.908e-07  t[s]:   1008.85
	FillingsUpdate:  mu: -0.196678303  nElectrons: 703.000000
	SubspaceRotationAdjust: set factor to 0.923
ElecMinimize: Iter:  23  F: -2796.672379449320033  |grad|_K:  4.359e-09  alpha:  3.318e-01  linmin: -1.128e-07  t[s]:   1036.15
ElecMinimize: Converged (|Delta F|<1.000000e-08 for 2 iters).
Setting wave functions to eigenvectors of Hamiltonian
Vacuum energy after initial minimize, F = -2796.672379449320033

	Linear fluid (dielectric constant: 78.4, screening length: 5.74355 Bohr) occupying 0.756539 of unit cell:	Completed after 19 iterations at t[s]:   1046.30

-------- Electronic minimization -----------
	Linear fluid (dielectric constant: 78.4, screening length: 5.74355 Bohr) occupying 0.756539 of unit cell:	Completed after 0 iterations at t[s]:   1056.08
	FillingsUpdate:  mu: -0.258329124  nElectrons: 703.000000
ElecMinimize: Iter:   0  F: -2796.575912201802112  |grad|_K:  2.869e-06  alpha:  1.000e+00
	Linear fluid (dielectric constant: 78.4, screening length: 5.74355 Bohr) occupying 0.756988 of unit cell:	Completed after 12 iterations at t[s]:   1081.42
	Linear fluid (dielectric constant: 78.4, screening length: 5.74355 Bohr) occupying 0.756644 of unit cell:	Completed after 12 iterations at t[s]:   1097.03
	FillingsUpdate:  mu: -0.254752788  nElectrons: 703.000000
	SubspaceRotationAdjust: set factor to 0.647
ElecMinimize: Iter:   1  F: -2796.576165633987330  |grad|_K:  1.664e-06  alpha:  2.313e-01  linmin: -1.194e-06  t[s]:   1112.28
	Linear fluid (dielectric constant: 78.4, screening length: 5.74355 Bohr) occupying 0.756741 of unit cell:	Completed after 9 iterations at t[s]:   1122.80
	Linear fluid (dielectric constant: 78.4, screening length: 5.74355 Bohr) occupying 0.756817 of unit cell:	Completed after 8 iterations at t[s]:   1137.20
	FillingsUpdate:  mu: -0.253897383  nElectrons: 703.000000
	SubspaceRotationAdjust: set factor to 0.703
ElecMinimize: Iter:   2  F: -2796.576318730293224  |grad|_K:  6.930e-07  alpha:  4.138e-01  linmin: -1.205e-06  t[s]:   1151.79
	Linear fluid (dielectric constant: 78.4, screening length: 5.74355 Bohr) occupying 0.756873 of unit cell:	Completed after 3 iterations at t[s]:   1161.03
	Linear fluid (dielectric constant: 78.4, screening length: 5.74355 Bohr) occupying 0.756881 of unit cell:	Completed after 3 iterations at t[s]:   1173.43
	FillingsUpdate:  mu: -0.253859672  nElectrons: 703.000000
	SubspaceRotationAdjust: set factor to 0.681
ElecMinimize: Iter:   3  F: -2796.576349264943929  |grad|_K:  2.868e-07  alpha:  4.761e-01  linmin:  4.015e-07  t[s]:   1187.21
	Linear fluid (dielectric constant: 78.4, screening length: 5.74355 Bohr) occupying 0.756901 of unit cell:	Completed after 2 iterations at t[s]:   1196.28
	Linear fluid (dielectric constant: 78.4, screening length: 5.74355 Bohr) occupying 0.756901 of unit cell:	Completed after 0 iterations at t[s]:   1207.67
	FillingsUpdate:  mu: -0.253892935  nElectrons: 703.000000
	SubspaceRotationAdjust: set factor to 0.686
ElecMinimize: Iter:   4  F: -2796.576354370726222  |grad|_K:  1.618e-07  alpha:  4.693e-01  linmin: -7.655e-07  t[s]:   1220.84
	Linear fluid (dielectric constant: 78.4, screening length: 5.74355 Bohr) occupying 0.756910 of unit cell:	Completed after 2 iterations at t[s]:   1229.88
	Linear fluid (dielectric constant: 78.4, screening length: 5.74355 Bohr) occupying 0.756909 of unit cell:	Completed after 0 iterations at t[s]:   1241.22
	FillingsUpdate:  mu: -0.253837916  nElectrons: 703.000000
	SubspaceRotationAdjust: set factor to 0.767
ElecMinimize: Iter:   5  F: -2796.576355979524124  |grad|_K:  8.608e-08  alpha:  4.602e-01  linmin: -1.908e-06  t[s]:   1254.23
	Linear fluid (dielectric constant: 78.4, screening length: 5.74355 Bohr) occupying 0.756911 of unit cell:	Completed after 1 iterations at t[s]:   1263.17
	Linear fluid (dielectric constant: 78.4, screening length: 5.74355 Bohr) occupying 0.756911 of unit cell:	Completed after 0 iterations at t[s]:   1274.03
	FillingsUpdate:  mu: -0.253842655  nElectrons: 703.000000
	SubspaceRotationAdjust: set factor to 0.871
ElecMinimize: Iter:   6  F: -2796.576356529846635  |grad|_K:  5.969e-08  alpha:  5.398e-01  linmin: -4.088e-06  t[s]:   1287.44
	Linear fluid (dielectric constant: 78.4, screening length: 5.74355 Bohr) occupying 0.756911 of unit cell:	Completed after 2 iterations at t[s]:   1296.99
	Linear fluid (dielectric constant: 78.4, screening length: 5.74355 Bohr) occupying 0.756911 of unit cell:	Completed after 0 iterations at t[s]:   1308.76
	FillingsUpdate:  mu: -0.253856468  nElectrons: 703.000000
	SubspaceRotationAdjust: set factor to 0.838
ElecMinimize: Iter:   7  F: -2796.576356662077160  |grad|_K:  4.756e-08  alpha:  3.172e-01  linmin: -3.583e-06  t[s]:   1321.70
	Linear fluid (dielectric constant: 78.4, screening length: 5.74355 Bohr) occupying 0.756910 of unit cell:	Completed after 1 iterations at t[s]:   1331.17
	Linear fluid (dielectric constant: 78.4, screening length: 5.74355 Bohr) occupying 0.756910 of unit cell:	Completed after 0 iterations at t[s]:   1342.60
	FillingsUpdate:  mu: -0.253843525  nElectrons: 703.000000
	SubspaceRotationAdjust: set factor to 1.07
ElecMinimize: Iter:   8  F: -2796.576356746562851  |grad|_K:  3.290e-08  alpha:  2.775e-01  linmin: -3.500e-06  t[s]:   1355.95
	Linear fluid (dielectric constant: 78.4, screening length: 5.74355 Bohr) occupying 0.756910 of unit cell:	Completed after 1 iterations at t[s]:   1364.76
	Linear fluid (dielectric constant: 78.4, screening length: 5.74355 Bohr) occupying 0.756910 of unit cell:	Completed after 0 iterations at t[s]:   1376.11
	FillingsUpdate:  mu: -0.253821016  nElectrons: 703.000000
	SubspaceRotationAdjust: set factor to 1.07
ElecMinimize: Iter:   9  F: -2796.576356755616871  |grad|_K:  2.764e-08  alpha:  1.553e-01  linmin: -4.931e-06  t[s]:   1389.32
	Linear fluid (dielectric constant: 78.4, screening length: 5.74355 Bohr) occupying 0.756910 of unit cell:	Completed after 0 iterations at t[s]:   1398.01
	Linear fluid (dielectric constant: 78.4, screening length: 5.74355 Bohr) occupying 0.756909 of unit cell:	Completed after 0 iterations at t[s]:   1408.62
	FillingsUpdate:  mu: -0.253820813  nElectrons: 703.000000
	SubspaceRotationAdjust: set factor to 1.36
ElecMinimize: Iter:  10  F: -2796.576356783022675  |grad|_K:  2.785e-08  alpha:  2.206e-01  linmin:  1.195e-07  t[s]:   1421.51
	Linear fluid (dielectric constant: 78.4, screening length: 5.74355 Bohr) occupying 0.756908 of unit cell:	Completed after 0 iterations at t[s]:   1430.24
	Linear fluid (dielectric constant: 78.4, screening length: 5.74355 Bohr) occupying 0.756908 of unit cell:	Completed after 1 iterations at t[s]:   1441.95
ElecMinimize: 	Step increased F by 1.362969e-08, reducing alpha to 2.558533e-02.
	Linear fluid (dielectric constant: 78.4, screening length: 5.74355 Bohr) occupying 0.756909 of unit cell:	Completed after 0 iterations at t[s]:   1462.18
	FillingsUpdate:  mu: -0.253836543  nElectrons: 703.000000
	SubspaceRotationAdjust: set factor to 1.34
ElecMinimize: Iter:  11  F: -2796.576356787649274  |grad|_K:  2.268e-08  alpha:  2.559e-02  linmin: -4.891e-07  t[s]:   1474.96
	Linear fluid (dielectric constant: 78.4, screening length: 5.74355 Bohr) occupying 0.756909 of unit cell:	Completed after 0 iterations at t[s]:   1483.62
ElecMinimize: 	Predicted alpha/alphaT>3.000000, increasing alphaT to 7.675599e-02.
	Linear fluid (dielectric constant: 78.4, screening length: 5.74355 Bohr) occupying 0.756909 of unit cell:	Completed after 0 iterations at t[s]:   1494.38
	Linear fluid (dielectric constant: 78.4, screening length: 5.74355 Bohr) occupying 0.756909 of unit cell:	Completed after 0 iterations at t[s]:   1505.41
	FillingsUpdate:  mu: -0.253836440  nElectrons: 703.000000
	SubspaceRotationAdjust: set factor to 1.78
ElecMinimize: Iter:  12  F: -2796.576356800361282  |grad|_K:  1.280e-08  alpha:  1.827e-01  linmin:  4.552e-07  t[s]:   1518.23
	Linear fluid (dielectric constant: 78.4, screening length: 5.74355 Bohr) occupying 0.756908 of unit cell:	Completed after 0 iterations at t[s]:   1526.83
	Linear fluid (dielectric constant: 78.4, screening length: 5.74355 Bohr) occupying 0.756908 of unit cell:	Completed after 0 iterations at t[s]:   1538.09
	FillingsUpdate:  mu: -0.253836548  nElectrons: 703.000000
	SubspaceRotationAdjust: set factor to 2.24
ElecMinimize: Iter:  13  F: -2796.576356806046078  |grad|_K:  1.392e-08  alpha:  2.844e-01  linmin:  1.547e-07  t[s]:   1551.12
	Linear fluid (dielectric constant: 78.4, screening length: 5.74355 Bohr) occupying 0.756908 of unit cell:	Completed after 0 iterations at t[s]:   1560.62
	Linear fluid (dielectric constant: 78.4, screening length: 5.74355 Bohr) occupying 0.756908 of unit cell:	Completed after 0 iterations at t[s]:   1571.50
ElecMinimize: 	Step increased F by 3.634796e-09, reducing alpha to 1.177114e-02.
	Linear fluid (dielectric constant: 78.4, screening length: 5.74355 Bohr) occupying 0.756908 of unit cell:	Completed after 0 iterations at t[s]:   1591.86
ElecMinimize: 	Step increased F by 6.531536e-09, reducing alpha to 1.177114e-03.
	Linear fluid (dielectric constant: 78.4, screening length: 5.74355 Bohr) occupying 0.756908 of unit cell:	Completed after 0 iterations at t[s]:   1611.96
ElecMinimize: 	Step increased F by 7.000835e-09, reducing alpha to 1.177114e-04.
ElecMinimize: 	Step failed to reduce F after 3 attempts. Quitting step.
ElecMinimize: 	Undoing step.
	Linear fluid (dielectric constant: 78.4, screening length: 5.74355 Bohr) occupying 0.756908 of unit cell:	Completed after 0 iterations at t[s]:   1632.11
ElecMinimize: 	Step failed: resetting search direction.
	FillingsUpdate:  mu: -0.253833097  nElectrons: 703.000000
	SubspaceRotationAdjust: set factor to 2.83
ElecMinimize: Iter:  14  F: -2796.576356798978850  |grad|_K:  1.326e-08  alpha:  1.177e-04
	Linear fluid (dielectric constant: 78.4, screening length: 5.74355 Bohr) occupying 0.756908 of unit cell:	Completed after 0 iterations at t[s]:   1654.45
	Linear fluid (dielectric constant: 78.4, screening length: 5.74355 Bohr) occupying 0.756908 of unit cell:	Completed after 0 iterations at t[s]:   1665.34
	FillingsUpdate:  mu: -0.253833255  nElectrons: 703.000000
	SubspaceRotationAdjust: set factor to 3.95
ElecMinimize: Iter:  15  F: -2796.576356805780506  |grad|_K:  8.251e-09  alpha:  2.949e-01  linmin:  2.123e-07  t[s]:   1678.59
	Linear fluid (dielectric constant: 78.4, screening length: 5.74355 Bohr) occupying 0.756909 of unit cell:	Completed after 0 iterations at t[s]:   1687.32
	Linear fluid (dielectric constant: 78.4, screening length: 5.74355 Bohr) occupying 0.756909 of unit cell:	Completed after 0 iterations at t[s]:   1698.00
	FillingsUpdate:  mu: -0.253833562  nElectrons: 703.000000
	SubspaceRotationAdjust: set factor to 2.99
ElecMinimize: Iter:  16  F: -2796.576356809926438  |grad|_K:  4.459e-09  alpha:  4.858e-01  linmin:  8.007e-07  t[s]:   1710.99
ElecMinimize: Converged (|Delta F|<1.000000e-08 for 2 iters).
Setting wave functions to eigenvectors of Hamiltonian
Single-point solvation energy estimate, DeltaF = +0.096022639393595

# Ionic positions in lattice coordinates:
ion Mo   0.166666670266667   0.083333326383333   0.558556097997901 1
ion Mo   0.083333336933333   0.166666659716667   0.441447899802099 1
ion Mo   0.416666670266667   0.083333326383333   0.558556097997901 1
ion Mo   0.333333336933333   0.166666659716667   0.441447899802099 1
ion Mo   0.666666670266667   0.083333326383333   0.558556097997901 1
ion Mo   0.583333336933333   0.166666659716667   0.441447899802099 1
ion Mo   0.916666670266667   0.083333326383333   0.558556097997901 1
ion Mo   0.833333336933333   0.166666659716667   0.441447899802099 1
ion Mo   0.166666670266667   0.333333326383333   0.558556097997901 1
ion Mo   0.083333336933333   0.416666659716667   0.441447899802099 1
ion Mo   0.416666670266667   0.333333326383333   0.558556097997901 1
ion Mo   0.333333336933333   0.416666659716667   0.441447899802099 1
ion Mo   0.666666670266667   0.333333326383333   0.558556097997901 1
ion Mo   0.583333336933333   0.416666659716667   0.441447899802099 1
ion Mo   0.916666670266667   0.333333326383333   0.558556097997901 1
ion Mo   0.833333336933333   0.416666659716667   0.441447899802099 1
ion Mo   0.166666670266667   0.583333326383333   0.558556097997901 1
ion Mo   0.083333336933333   0.666666659716667   0.441447899802099 1
ion Mo   0.416666670266667   0.583333326383333   0.558556097997901 1
ion Mo   0.333333336933333   0.666666659716667   0.441447899802099 1
ion Mo   0.666666670266667   0.583333326383333   0.558556097997901 1
ion Mo   0.583333336933333   0.666666659716667   0.441447899802099 1
ion Mo   0.916666670266667   0.583333326383333   0.558556097997901 1
ion Mo   0.833333336933333   0.666666659716667   0.441447899802099 1
ion Mo   0.166666670266667   0.833333326383333   0.558556097997901 1
ion Mo   0.083333336933333   0.916666659716667   0.441447899802099 1
ion Mo   0.416666670266667   0.833333326383333   0.558556097997901 1
ion Mo   0.333333336933333   0.916666659716667   0.441447899802099 1
ion Mo   0.666666670266667   0.833333326383333   0.558556097997901 1
ion Mo   0.583333336933333   0.916666659716667   0.441447899802099 1
ion Mo   0.916666670266667   0.833333326383333   0.558556097997901 1
ion Mo   0.833333336933333   0.916666659716667   0.441447899802099 1
ion C   0.000000003600000  -0.000000006950000   0.500001998900000 1
ion C   0.250000003600000  -0.000000006950000   0.500001998900000 1
ion C   0.500000003600000  -0.000000006950000   0.500001998900000 1
ion C   0.750000003600000  -0.000000006950000   0.500001998900000 1
ion C   0.000000003600000   0.249999993050000   0.500001998900000 1
ion C   0.250000003600000   0.249999993050000   0.500001998900000 1
ion C   0.500000003600000   0.249999993050000   0.500001998900000 1
ion C   0.750000003600000   0.249999993050000   0.500001998900000 1
ion C   0.000000003600000   0.499999993050000   0.500001998900000 1
ion C   0.250000003600000   0.499999993050000   0.500001998900000 1
ion C   0.500000003600000   0.499999993050000   0.500001998900000 1
ion C   0.750000003600000   0.499999993050000   0.500001998900000 1
ion C   0.000000003600000   0.749999993050000   0.500001998900000 1
ion C   0.250000003600000   0.749999993050000   0.500001998900000 1
ion C   0.500000003600000   0.749999993050000   0.500001998900000 1
ion C   0.750000003600000   0.749999993050000   0.500001998900000 1
ion O   0.083333336933333   0.166666659716667   0.616517487420202 1
ion O   0.166666670266667   0.083333326383333   0.383486510379798 1
ion O   0.333333336933333   0.166666659716667   0.616517487420202 1
ion O   0.416666670266667   0.083333326383333   0.383486510379798 1
ion O   0.583333336933333   0.166666659716667   0.616517487420202 1
ion O   0.666666670266667   0.083333326383333   0.383486510379798 1
ion O   0.833333336933333   0.166666659716667   0.616517487420202 1
ion O   0.916666670266667   0.083333326383333   0.383486510379798 1
ion O   0.083333336933333   0.416666659716667   0.616517487420202 1
ion O   0.166666670266667   0.333333326383333   0.383486510379798 1
ion O   0.333333336933333   0.416666659716667   0.616517487420202 1
ion O   0.416666670266667   0.333333326383333   0.383486510379798 1
ion O   0.583333336933333   0.416666659716667   0.616517487420202 1
ion O   0.666666670266667   0.333333326383333   0.383486510379798 1
ion O   0.833333336933333   0.416666659716667   0.616517487420202 1
ion O   0.916666670266667   0.333333326383333   0.383486510379798 1
ion O   0.083333336933333   0.666666659716667   0.616517487420202 1
ion O   0.166666670266667   0.583333326383333   0.383486510379798 1
ion O   0.333333336933333   0.666666659716667   0.616517487420202 1
ion O   0.416666670266667   0.583333326383333   0.383486510379798 1
ion O   0.583333336933333   0.666666659716667   0.616517487420202 1
ion O   0.666666670266667   0.583333326383333   0.383486510379798 1
ion O   0.833333336933333   0.666666659716667   0.616517487420202 1
ion O   0.916666670266667   0.583333326383333   0.383486510379798 1
ion O   0.083333336933333   0.916666659716667   0.616517487420202 1
ion O   0.166666670266667   0.833333326383333   0.383486510379798 1
ion O   0.333333336933333   0.916666659716667   0.616517487420202 1
ion O   0.416666670266667   0.833333326383333   0.383486510379798 1
ion O   0.583333336933333   0.916666659716667   0.616517487420202 1
ion O   0.666666670266667   0.833333326383333   0.383486510379798 1
ion O   0.833333336933333   0.916666659716667   0.616517487420202 1
ion O   0.916666670266667   0.833333326383333   0.383486510379798 1


# Forces in Lattice coordinates:
force Mo  -0.000000000000000   0.000000000000000   0.174900577522689 1
force Mo   0.000000000000000   0.000000000000000  -0.174900577520870 1
force Mo  -0.000000000000000   0.000000000000000   0.174900577523144 1
force Mo   0.000000000000000   0.000000000000000  -0.174900577521325 1
force Mo   0.000000000000000  -0.000000000000000   0.174900577523145 1
force Mo   0.000000000000000   0.000000000000000  -0.174900577520870 1
force Mo  -0.000000000000000  -0.000000000000000   0.174900577523144 1
force Mo   0.000000000000000   0.000000000000000  -0.174900577521325 1
force Mo   0.000000000000000   0.000000000000000   0.174900577523144 1
force Mo   0.000000000000000   0.000000000000000  -0.174900577520870 1
force Mo  -0.000000000000000  -0.000000000000000   0.174900577523144 1
force Mo   0.000000000000000   0.000000000000000  -0.174900577521325 1
force Mo   0.000000000000000  -0.000000000000000   0.174900577523144 1
force Mo   0.000000000000000  -0.000000000000000  -0.174900577520870 1
force Mo   0.000000000000000   0.000000000000000   0.174900577523599 1
force Mo  -0.000000000000000  -0.000000000000000  -0.174900577521325 1
force Mo   0.000000000000000  -0.000000000000000   0.174900577523372 1
force Mo  -0.000000000000000   0.000000000000000  -0.174900577520870 1
force Mo  -0.000000000000000   0.000000000000000   0.174900577523145 1
force Mo  -0.000000000000000   0.000000000000000  -0.174900577521325 1
force Mo   0.000000000000000   0.000000000000000   0.174900577523144 1
force Mo   0.000000000000000  -0.000000000000000  -0.174900577520870 1
force Mo  -0.000000000000000  -0.000000000000000   0.174900577523144 1
force Mo   0.000000000000000  -0.000000000000000  -0.174900577521325 1
force Mo  -0.000000000000000   0.000000000000000   0.174900577523144 1
force Mo  -0.000000000000000  -0.000000000000000  -0.174900577520870 1
force Mo   0.000000000000000  -0.000000000000000   0.174900577523372 1
force Mo  -0.000000000000000   0.000000000000000  -0.174900577521325 1
force Mo   0.000000000000000  -0.000000000000000   0.174900577523144 1
force Mo   0.000000000000000   0.000000000000000  -0.174900577520870 1
force Mo   0.000000000000000   0.000000000000000   0.174900577523371 1
force Mo  -0.000000000000000  -0.000000000000000  -0.174900577521325 1
force C   0.000000000000000   0.000000000000000   0.000000000000000 1
force C   0.000000000000000  -0.000000000000000   0.000000000000000 1
force C  -0.000000000000000  -0.000000000000000  -0.000000000000000 1
force C   0.000000000000000  -0.000000000000000  -0.000000000000000 1
force C   0.000000000000000  -0.000000000000000  -0.000000000000000 1
force C  -0.000000000000000  -0.000000000000000   0.000000000000000 1
force C  -0.000000000000000   0.000000000000000   0.000000000000000 1
force C  -0.000000000000000  -0.000000000000000   0.000000000000000 1
force C  -0.000000000000000   0.000000000000000   0.000000000000000 1
force C  -0.000000000000000   0.000000000000000  -0.000000000000000 1
force C  -0.000000000000000   0.000000000000000   0.000000000000000 1
force C  -0.000000000000000  -0.000000000000000   0.000000000000000 1
force C   0.000000000000000  -0.000000000000000   0.000000000000000 1
force C  -0.000000000000000   0.000000000000000  -0.000000000000000 1
force C   0.000000000000000   0.000000000000000   0.000000000000000 1
force C  -0.000000000000000   0.000000000000000  -0.000000000000000 1
force O   0.000000000000000  -0.000000000000000  -0.123494296726076 1
force O  -0.000000000000000   0.000000000000000   0.123494296723813 1
force O  -0.000000000000000   0.000000000000000  -0.123494296726072 1
force O  -0.000000000000000  -0.000000000000000   0.123494296723813 1
force O   0.000000000000000   0.000000000000000  -0.123494296726072 1
force O  -0.000000000000000  -0.000000000000000   0.123494296723816 1
force O  -0.000000000000000  -0.000000000000000  -0.123494296726072 1
force O   0.000000000000000  -0.000000000000000   0.123494296723813 1
force O   0.000000000000000  -0.000000000000000  -0.123494296726072 1
force O  -0.000000000000000  -0.000000000000000   0.123494296723813 1
force O  -0.000000000000000   0.000000000000000  -0.123494296726072 1
force O  -0.000000000000000   0.000000000000000   0.123494296723358 1
force O   0.000000000000000  -0.000000000000000  -0.123494296726072 1
force O  -0.000000000000000   0.000000000000000   0.123494296723358 1
force O  -0.000000000000000  -0.000000000000000  -0.123494296726072 1
force O  -0.000000000000000   0.000000000000000   0.123494296723358 1
force O   0.000000000000000  -0.000000000000000  -0.123494296726072 1
force O  -0.000000000000000  -0.000000000000000   0.123494296723358 1
force O   0.000000000000000   0.000000000000000  -0.123494296726072 1
force O   0.000000000000000   0.000000000000000   0.123494296723813 1
force O   0.000000000000000  -0.000000000000000  -0.123494296726072 1
force O   0.000000000000000   0.000000000000000   0.123494296723358 1
force O   0.000000000000000  -0.000000000000000  -0.123494296726072 1
force O   0.000000000000000  -0.000000000000000   0.123494296723358 1
force O   0.000000000000000   0.000000000000000  -0.123494296726072 1
force O  -0.000000000000000   0.000000000000000   0.123494296723358 1
force O   0.000000000000000   0.000000000000000  -0.123494296726076 1
force O  -0.000000000000000  -0.000000000000000   0.123494296723358 1
force O   0.000000000000000  -0.000000000000000  -0.123494296726072 1
force O  -0.000000000000000   0.000000000000000   0.123494296723813 1
force O   0.000000000000000   0.000000000000000  -0.123494296726072 1
force O   0.000000000000000  -0.000000000000000   0.123494296723358 1

# Energy components:
   A_diel =        0.0749728804710403
   Eewald =    28608.1972240998948109
       EH =    30857.5756532985542435
     Eloc =   -63098.8061678592202952
      Enl =      494.9849801975524315
      Exc =     -454.9212942840053984
 Exc_core =       41.6778461789883465
       KE =      754.7361184224729413
  MuShift =        0.0206063195381389
-------------------------------------
     Etot =    -2796.4600607457518890
       TS =        0.1162960641746974
-------------------------------------
        F =    -2796.5763568099264376

IonicMinimize: Iter:   0  F: -2796.576356809926438  |grad|_K:  2.125e-03  t[s]:   1723.87

#--- Lowdin population analysis ---
# oxidation-state Mo +0.558 +0.558 +0.558 +0.558 +0.558 +0.558 +0.558 +0.558 +0.558 +0.558 +0.558 +0.558 +0.558 +0.558 +0.558 +0.558 +0.558 +0.558 +0.558 +0.558 +0.558 +0.558 +0.558 +0.558 +0.558 +0.558 +0.558 +0.558 +0.558 +0.558 +0.558 +0.558
# oxidation-state C -0.233 -0.233 -0.233 -0.233 -0.233 -0.233 -0.233 -0.233 -0.233 -0.233 -0.233 -0.233 -0.233 -0.233 -0.233 -0.233
# oxidation-state O -0.347 -0.347 -0.347 -0.347 -0.347 -0.347 -0.347 -0.347 -0.347 -0.347 -0.347 -0.347 -0.347 -0.347 -0.347 -0.347 -0.347 -0.347 -0.347 -0.347 -0.347 -0.347 -0.347 -0.347 -0.347 -0.347 -0.347 -0.347 -0.347 -0.347 -0.347 -0.347

	Linear fluid (dielectric constant: 78.4, screening length: 5.74355 Bohr) occupying 0.756973 of unit cell:	Completed after 11 iterations at t[s]:   1736.06

-------- Electronic minimization -----------
	Linear fluid (dielectric constant: 78.4, screening length: 5.74355 Bohr) occupying 0.756973 of unit cell:	Completed after 0 iterations at t[s]:   1746.01
	FillingsUpdate:  mu: -0.251103756  nElectrons: 703.000000
ElecMinimize: Iter:   0  F: -2796.575692475755659  |grad|_K:  6.245e-06  alpha:  1.000e+00
	Linear fluid (dielectric constant: 78.4, screening length: 5.74355 Bohr) occupying 0.756750 of unit cell:	Completed after 13 iterations at t[s]:   1771.45
	Linear fluid (dielectric constant: 78.4, screening length: 5.74355 Bohr) occupying 0.756936 of unit cell:	Completed after 12 iterations at t[s]:   1786.13
	FillingsUpdate:  mu: -0.255490032  nElectrons: 703.000000
	SubspaceRotationAdjust: set factor to 1.55
ElecMinimize: Iter:   1  F: -2796.576755446126754  |grad|_K:  6.589e-06  alpha:  2.077e-01  linmin:  6.352e-05  t[s]:   1801.81
	Linear fluid (dielectric constant: 78.4, screening length: 5.74355 Bohr) occupying 0.756950 of unit cell:	Completed after 12 iterations at t[s]:   1812.52
	Linear fluid (dielectric constant: 78.4, screening length: 5.74355 Bohr) occupying 0.756942 of unit cell:	Completed after 12 iterations at t[s]:   1828.05
	FillingsUpdate:  mu: -0.252930518  nElectrons: 703.000000
	SubspaceRotationAdjust: set factor to 1.17
ElecMinimize: Iter:   2  F: -2796.577218170495144  |grad|_K:  9.671e-07  alpha:  8.071e-02  linmin: -3.726e-05  t[s]:   1843.34
	Linear fluid (dielectric constant: 78.4, screening length: 5.74355 Bohr) occupying 0.756947 of unit cell:	Completed after 2 iterations at t[s]:   1852.79
	Linear fluid (dielectric constant: 78.4, screening length: 5.74355 Bohr) occupying 0.756955 of unit cell:	Completed after 3 iterations at t[s]:   1865.10
	FillingsUpdate:  mu: -0.252825123  nElectrons: 703.000000
	SubspaceRotationAdjust: set factor to 0.743
ElecMinimize: Iter:   3  F: -2796.577246135608675  |grad|_K:  4.400e-07  alpha:  2.268e-01  linmin:  3.674e-05  t[s]:   1878.87
	Linear fluid (dielectric constant: 78.4, screening length: 5.74355 Bohr) occupying 0.756962 of unit cell:	Completed after 2 iterations at t[s]:   1888.15
	Linear fluid (dielectric constant: 78.4, screening length: 5.74355 Bohr) occupying 0.756968 of unit cell:	Completed after 2 iterations at t[s]:   1899.94
	FillingsUpdate:  mu: -0.252673471  nElectrons: 703.000000
	SubspaceRotationAdjust: set factor to 0.761
ElecMinimize: Iter:   4  F: -2796.577257474958515  |grad|_K:  2.168e-07  alpha:  4.392e-01  linmin: -4.259e-05  t[s]:   1913.77
	Linear fluid (dielectric constant: 78.4, screening length: 5.74355 Bohr) occupying 0.756969 of unit cell:	Completed after 3 iterations at t[s]:   1923.73
	Linear fluid (dielectric constant: 78.4, screening length: 5.74355 Bohr) occupying 0.756969 of unit cell:	Completed after 0 iterations at t[s]:   1935.67
	FillingsUpdate:  mu: -0.252648957  nElectrons: 703.000000
	SubspaceRotationAdjust: set factor to 0.765
ElecMinimize: Iter:   5  F: -2796.577260218341507  |grad|_K:  1.211e-07  alpha:  4.297e-01  linmin: -7.857e-06  t[s]:   1948.42
	Linear fluid (dielectric constant: 78.4, screening length: 5.74355 Bohr) occupying 0.756968 of unit cell:	Completed after 1 iterations at t[s]:   1957.31
	Linear fluid (dielectric constant: 78.4, screening length: 5.74355 Bohr) occupying 0.756968 of unit cell:	Completed after 0 iterations at t[s]:   1968.14
	FillingsUpdate:  mu: -0.252736693  nElectrons: 703.000000
	SubspaceRotationAdjust: set factor to 0.675
ElecMinimize: Iter:   6  F: -2796.577261016139346  |grad|_K:  8.428e-08  alpha:  4.071e-01  linmin:  6.398e-06  t[s]:   1981.30
	Linear fluid (dielectric constant: 78.4, screening length: 5.74355 Bohr) occupying 0.756966 of unit cell:	Completed after 2 iterations at t[s]:   1990.39
	Linear fluid (dielectric constant: 78.4, screening length: 5.74355 Bohr) occupying 0.756966 of unit cell:	Completed after 0 iterations at t[s]:   2002.16
	FillingsUpdate:  mu: -0.252714329  nElectrons: 703.000000
	SubspaceRotationAdjust: set factor to 0.62
ElecMinimize: Iter:   7  F: -2796.577261375959552  |grad|_K:  3.951e-08  alpha:  3.894e-01  linmin: -2.759e-06  t[s]:   2015.25
	Linear fluid (dielectric constant: 78.4, screening length: 5.74355 Bohr) occupying 0.756965 of unit cell:	Completed after 0 iterations at t[s]:   2023.69
	Linear fluid (dielectric constant: 78.4, screening length: 5.74355 Bohr) occupying 0.756964 of unit cell:	Completed after 0 iterations at t[s]:   2034.54
	FillingsUpdate:  mu: -0.252714492  nElectrons: 703.000000
	SubspaceRotationAdjust: set factor to 0.711
ElecMinimize: Iter:   8  F: -2796.577261501100566  |grad|_K:  2.298e-08  alpha:  5.958e-01  linmin: -1.899e-07  t[s]:   2047.60
	Linear fluid (dielectric constant: 78.4, screening length: 5.74355 Bohr) occupying 0.756964 of unit cell:	Completed after 0 iterations at t[s]:   2056.73
	Linear fluid (dielectric constant: 78.4, screening length: 5.74355 Bohr) occupying 0.756964 of unit cell:	Completed after 0 iterations at t[s]:   2067.53
	FillingsUpdate:  mu: -0.252714460  nElectrons: 703.000000
	SubspaceRotationAdjust: set factor to 0.904
ElecMinimize: Iter:   9  F: -2796.577261536374408  |grad|_K:  1.626e-08  alpha:  5.020e-01  linmin:  2.041e-08  t[s]:   2080.68
	Linear fluid (dielectric constant: 78.4, screening length: 5.74355 Bohr) occupying 0.756964 of unit cell:	Completed after 2 iterations at t[s]:   2090.09
	Linear fluid (dielectric constant: 78.4, screening length: 5.74355 Bohr) occupying 0.756964 of unit cell:	Completed after 0 iterations at t[s]:   2101.38
ElecMinimize: 	Step increased F by 5.466518e-08, reducing alpha to 5.949722e-03.
	Linear fluid (dielectric constant: 78.4, screening length: 5.74355 Bohr) occupying 0.756964 of unit cell:	Completed after 0 iterations at t[s]:   2121.39
ElecMinimize: 	Step increased F by 4.938420e-08, reducing alpha to 5.949722e-04.
	Linear fluid (dielectric constant: 78.4, screening length: 5.74355 Bohr) occupying 0.756964 of unit cell:	Completed after 0 iterations at t[s]:   2142.02
ElecMinimize: 	Step increased F by 4.898220e-08, reducing alpha to 5.949722e-05.
ElecMinimize: 	Step failed to reduce F after 3 attempts. Quitting step.
ElecMinimize: 	Undoing step.
	Linear fluid (dielectric constant: 78.4, screening length: 5.74355 Bohr) occupying 0.756964 of unit cell:	Completed after 0 iterations at t[s]:   2161.81
ElecMinimize: 	Step failed: resetting search direction.
	FillingsUpdate:  mu: -0.252722798  nElectrons: 703.000000
	SubspaceRotationAdjust: set factor to 0.786
ElecMinimize: Iter:  10  F: -2796.577261487499527  |grad|_K:  5.220e-08  alpha:  5.950e-05
	Linear fluid (dielectric constant: 78.4, screening length: 5.74355 Bohr) occupying 0.756964 of unit cell:	Completed after 3 iterations at t[s]:   2184.69
	Linear fluid (dielectric constant: 78.4, screening length: 5.74355 Bohr) occupying 0.756964 of unit cell:	Completed after 1 iterations at t[s]:   2196.57
	FillingsUpdate:  mu: -0.252687953  nElectrons: 703.000000
	SubspaceRotationAdjust: set factor to 0.375
	SubspaceRotationAdjust: resetting CG because factor has changed by 0.125162
	Linear fluid (dielectric constant: 78.4, screening length: 5.74355 Bohr) occupying 0.756964 of unit cell:	Completed after 0 iterations at t[s]:   2214.04
ElecMinimize: 	State modified externally: resetting search direction.
ElecMinimize: Iter:  11  F: -2796.577261500130589  |grad|_K:  2.190e-08  alpha:  1.406e-01
	Linear fluid (dielectric constant: 78.4, screening length: 5.74355 Bohr) occupying 0.756964 of unit cell:	Completed after 0 iterations at t[s]:   2235.70
ElecMinimize: 	Predicted alpha/alphaT>3.000000, increasing alphaT to 4.218607e-01.
	Linear fluid (dielectric constant: 78.4, screening length: 5.74355 Bohr) occupying 0.756964 of unit cell:	Completed after 0 iterations at t[s]:   2246.44
	Linear fluid (dielectric constant: 78.4, screening length: 5.74355 Bohr) occupying 0.756964 of unit cell:	Completed after 2 iterations at t[s]:   2257.45
ElecMinimize: 	Step increased F by 1.156955e-07, reducing alpha to 1.205099e-01.
	Linear fluid (dielectric constant: 78.4, screening length: 5.74355 Bohr) occupying 0.756964 of unit cell:	Completed after 2 iterations at t[s]:   2278.61
	FillingsUpdate:  mu: -0.252716474  nElectrons: 703.000000
	SubspaceRotationAdjust: set factor to 0.855
ElecMinimize: Iter:  12  F: -2796.577261520885259  |grad|_K:  9.171e-09  alpha:  1.205e-01  linmin: -2.002e-05  t[s]:   2292.52
	Linear fluid (dielectric constant: 78.4, screening length: 5.74355 Bohr) occupying 0.756964 of unit cell:	Completed after 0 iterations at t[s]:   2301.22
ElecMinimize: 	Predicted alpha/alphaT>3.000000, increasing alphaT to 3.615298e-01.
	Linear fluid (dielectric constant: 78.4, screening length: 5.74355 Bohr) occupying 0.756964 of unit cell:	Completed after 0 iterations at t[s]:   2311.97
	Linear fluid (dielectric constant: 78.4, screening length: 5.74355 Bohr) occupying 0.756964 of unit cell:	Completed after 0 iterations at t[s]:   2322.85
	FillingsUpdate:  mu: -0.252716384  nElectrons: 703.000000
	SubspaceRotationAdjust: set factor to 0.985
ElecMinimize: Iter:  13  F: -2796.577261528059353  |grad|_K:  6.902e-09  alpha:  5.860e-01  linmin:  8.192e-07  t[s]:   2335.93
	Linear fluid (dielectric constant: 78.4, screening length: 5.74355 Bohr) occupying 0.756964 of unit cell:	Completed after 0 iterations at t[s]:   2344.86
	Linear fluid (dielectric constant: 78.4, screening length: 5.74355 Bohr) occupying 0.756964 of unit cell:	Completed after 0 iterations at t[s]:   2355.91
ElecMinimize: 	Step increased F by 8.353254e-09, reducing alpha to 1.376381e-02.
	Linear fluid (dielectric constant: 78.4, screening length: 5.74355 Bohr) occupying 0.756964 of unit cell:	Completed after 0 iterations at t[s]:   2376.05
ElecMinimize: 	Step increased F by 9.244559e-09, reducing alpha to 1.376381e-03.
	Linear fluid (dielectric constant: 78.4, screening length: 5.74355 Bohr) occupying 0.756964 of unit cell:	Completed after 0 iterations at t[s]:   2395.80
ElecMinimize: 	Step increased F by 9.380528e-09, reducing alpha to 1.376381e-04.
ElecMinimize: 	Step failed to reduce F after 3 attempts. Quitting step.
ElecMinimize: 	Undoing step.
	Linear fluid (dielectric constant: 78.4, screening length: 5.74355 Bohr) occupying 0.756964 of unit cell:	Completed after 0 iterations at t[s]:   2416.22
ElecMinimize: 	Step failed: resetting search direction.
	FillingsUpdate:  mu: -0.252715036  nElectrons: 703.000000
	SubspaceRotationAdjust: set factor to 1.25
ElecMinimize: Iter:  14  F: -2796.577261518634259  |grad|_K:  6.041e-09  alpha:  1.376e-04
	Linear fluid (dielectric constant: 78.4, screening length: 5.74355 Bohr) occupying 0.756964 of unit cell:	Completed after 0 iterations at t[s]:   2438.50
	Linear fluid (dielectric constant: 78.4, screening length: 5.74355 Bohr) occupying 0.756964 of unit cell:	Completed after 0 iterations at t[s]:   2449.29
	FillingsUpdate:  mu: -0.252715069  nElectrons: 703.000000
	SubspaceRotationAdjust: set factor to 1.63
ElecMinimize: Iter:  15  F: -2796.577261520558295  |grad|_K:  4.174e-09  alpha:  3.762e-01  linmin:  2.272e-07  t[s]:   2462.39
	Linear fluid (dielectric constant: 78.4, screening length: 5.74355 Bohr) occupying 0.756964 of unit cell:	Completed after 0 iterations at t[s]:   2470.96
	Linear fluid (dielectric constant: 78.4, screening length: 5.74355 Bohr) occupying 0.756964 of unit cell:	Completed after 0 iterations at t[s]:   2481.57
	FillingsUpdate:  mu: -0.252715092  nElectrons: 703.000000
	SubspaceRotationAdjust: set factor to 2.08
ElecMinimize: Iter:  16  F: -2796.577261521640594  |grad|_K:  2.508e-09  alpha:  4.312e-01  linmin: -7.051e-07  t[s]:   2494.81
ElecMinimize: Converged (|Delta F|<1.000000e-08 for 2 iters).
Setting wave functions to eigenvectors of Hamiltonian

# Ionic positions in lattice coordinates:
ion Mo   0.166666670266667   0.083333326383333   0.558685328275299 1
ion Mo   0.083333336933333   0.166666659716667   0.441318669524701 1
ion Mo   0.416666670266667   0.083333326383333   0.558685328275299 1
ion Mo   0.333333336933333   0.166666659716667   0.441318669524701 1
ion Mo   0.666666670266667   0.083333326383333   0.558685328275299 1
ion Mo   0.583333336933333   0.166666659716667   0.441318669524701 1
ion Mo   0.916666670266667   0.083333326383333   0.558685328275299 1
ion Mo   0.833333336933333   0.166666659716667   0.441318669524701 1
ion Mo   0.166666670266667   0.333333326383333   0.558685328275299 1
ion Mo   0.083333336933333   0.416666659716667   0.441318669524701 1
ion Mo   0.416666670266667   0.333333326383333   0.558685328275299 1
ion Mo   0.333333336933333   0.416666659716667   0.441318669524701 1
ion Mo   0.666666670266667   0.333333326383333   0.558685328275299 1
ion Mo   0.583333336933333   0.416666659716667   0.441318669524701 1
ion Mo   0.916666670266667   0.333333326383333   0.558685328275299 1
ion Mo   0.833333336933333   0.416666659716667   0.441318669524701 1
ion Mo   0.166666670266667   0.583333326383333   0.558685328275299 1
ion Mo   0.083333336933333   0.666666659716667   0.441318669524701 1
ion Mo   0.416666670266667   0.583333326383333   0.558685328275299 1
ion Mo   0.333333336933333   0.666666659716667   0.441318669524701 1
ion Mo   0.666666670266667   0.583333326383333   0.558685328275299 1
ion Mo   0.583333336933333   0.666666659716667   0.441318669524701 1
ion Mo   0.916666670266667   0.583333326383333   0.558685328275299 1
ion Mo   0.833333336933333   0.666666659716667   0.441318669524701 1
ion Mo   0.166666670266667   0.833333326383333   0.558685328275299 1
ion Mo   0.083333336933333   0.916666659716667   0.441318669524701 1
ion Mo   0.416666670266667   0.833333326383333   0.558685328275299 1
ion Mo   0.333333336933333   0.916666659716667   0.441318669524701 1
ion Mo   0.666666670266667   0.833333326383333   0.558685328275299 1
ion Mo   0.583333336933333   0.916666659716667   0.441318669524701 1
ion Mo   0.916666670266667   0.833333326383333   0.558685328275299 1
ion Mo   0.833333336933333   0.916666659716667   0.441318669524701 1
ion C   0.000000003600000  -0.000000006950000   0.500001998900000 1
ion C   0.250000003600000  -0.000000006950000   0.500001998900000 1
ion C   0.500000003600000  -0.000000006950000   0.500001998900000 1
ion C   0.750000003600000  -0.000000006950000   0.500001998900000 1
ion C   0.000000003600000   0.249999993050000   0.500001998900000 1
ion C   0.250000003600000   0.249999993050000   0.500001998900000 1
ion C   0.500000003600000   0.249999993050000   0.500001998900000 1
ion C   0.750000003600000   0.249999993050000   0.500001998900000 1
ion C   0.000000003600000   0.499999993050000   0.500001998900000 1
ion C   0.250000003600000   0.499999993050000   0.500001998900000 1
ion C   0.500000003600000   0.499999993050000   0.500001998900000 1
ion C   0.750000003600000   0.499999993050000   0.500001998900000 1
ion C   0.000000003600000   0.749999993050000   0.500001998900000 1
ion C   0.250000003600000   0.749999993050000   0.500001998900000 1
ion C   0.500000003600000   0.749999993050000   0.500001998900000 1
ion C   0.750000003600000   0.749999993050000   0.500001998900000 1
ion O   0.083333336933333   0.166666659716667   0.616426240138752 1
ion O   0.166666670266667   0.083333326383333   0.383577757661248 1
ion O   0.333333336933333   0.166666659716667   0.616426240138752 1
ion O   0.416666670266667   0.083333326383333   0.383577757661248 1
ion O   0.583333336933333   0.166666659716667   0.616426240138752 1
ion O   0.666666670266667   0.083333326383333   0.383577757661248 1
ion O   0.833333336933333   0.166666659716667   0.616426240138752 1
ion O   0.916666670266667   0.083333326383333   0.383577757661248 1
ion O   0.083333336933333   0.416666659716667   0.616426240138752 1
ion O   0.166666670266667   0.333333326383333   0.383577757661248 1
ion O   0.333333336933333   0.416666659716667   0.616426240138752 1
ion O   0.416666670266667   0.333333326383333   0.383577757661248 1
ion O   0.583333336933333   0.416666659716667   0.616426240138752 1
ion O   0.666666670266667   0.333333326383333   0.383577757661248 1
ion O   0.833333336933333   0.416666659716667   0.616426240138752 1
ion O   0.916666670266667   0.333333326383333   0.383577757661248 1
ion O   0.083333336933333   0.666666659716667   0.616426240138752 1
ion O   0.166666670266667   0.583333326383333   0.383577757661248 1
ion O   0.333333336933333   0.666666659716667   0.616426240138752 1
ion O   0.416666670266667   0.583333326383333   0.383577757661248 1
ion O   0.583333336933333   0.666666659716667   0.616426240138752 1
ion O   0.666666670266667   0.583333326383333   0.383577757661248 1
ion O   0.833333336933333   0.666666659716667   0.616426240138752 1
ion O   0.916666670266667   0.583333326383333   0.383577757661248 1
ion O   0.083333336933333   0.916666659716667   0.616426240138752 1
ion O   0.166666670266667   0.833333326383333   0.383577757661248 1
ion O   0.333333336933333   0.916666659716667   0.616426240138752 1
ion O   0.416666670266667   0.833333326383333   0.383577757661248 1
ion O   0.583333336933333   0.916666659716667   0.616426240138752 1
ion O   0.666666670266667   0.833333326383333   0.383577757661248 1
ion O   0.833333336933333   0.916666659716667   0.616426240138752 1
ion O   0.916666670266667   0.833333326383333   0.383577757661248 1


# Forces in Lattice coordinates:
force Mo  -0.000000000000000  -0.000000000000000   0.115436924868859 1
force Mo  -0.000000000000000   0.000000000000000  -0.115436924869089 1
force Mo  -0.000000000000000  -0.000000000000000   0.115436924868859 1
force Mo   0.000000000000000   0.000000000000000  -0.115436924868861 1
force Mo   0.000000000000000  -0.000000000000000   0.115436924868404 1
force Mo  -0.000000000000000   0.000000000000000  -0.115436924869088 1
force Mo  -0.000000000000000   0.000000000000000   0.115436924868860 1
force Mo  -0.000000000000000   0.000000000000000  -0.115436924869089 1
force Mo  -0.000000000000000   0.000000000000000   0.115436924868859 1
force Mo  -0.000000000000000   0.000000000000000  -0.115436924869089 1
force Mo  -0.000000000000000  -0.000000000000000   0.115436924868859 1
force Mo  -0.000000000000000  -0.000000000000000  -0.115436924868861 1
force Mo  -0.000000000000000   0.000000000000000   0.115436924868404 1
force Mo  -0.000000000000000   0.000000000000000  -0.115436924869089 1
force Mo   0.000000000000000   0.000000000000000   0.115436924869087 1
force Mo   0.000000000000000  -0.000000000000000  -0.115436924869089 1
force Mo  -0.000000000000000  -0.000000000000000   0.115436924869087 1
force Mo   0.000000000000000  -0.000000000000000  -0.115436924869089 1
force Mo   0.000000000000000   0.000000000000000   0.115436924868859 1
force Mo   0.000000000000000   0.000000000000000  -0.115436924868861 1
force Mo  -0.000000000000000  -0.000000000000000   0.115436924868405 1
force Mo   0.000000000000000  -0.000000000000000  -0.115436924868861 1
force Mo   0.000000000000000  -0.000000000000000   0.115436924869087 1
force Mo   0.000000000000000   0.000000000000000  -0.115436924869771 1
force Mo   0.000000000000000   0.000000000000000   0.115436924868859 1
force Mo   0.000000000000000  -0.000000000000000  -0.115436924869316 1
force Mo  -0.000000000000000   0.000000000000000   0.115436924868859 1
force Mo   0.000000000000000   0.000000000000000  -0.115436924869088 1
force Mo   0.000000000000000   0.000000000000000   0.115436924868405 1
force Mo  -0.000000000000000   0.000000000000000  -0.115436924869088 1
force Mo  -0.000000000000000   0.000000000000000   0.115436924868859 1
force Mo  -0.000000000000000   0.000000000000000  -0.115436924869089 1
force C  -0.000000000000000  -0.000000000000000  -0.000000000000000 1
force C  -0.000000000000000   0.000000000000000   0.000000000000000 1
force C   0.000000000000000   0.000000000000000   0.000000000000000 1
force C  -0.000000000000000  -0.000000000000000  -0.000000000000000 1
force C   0.000000000000000  -0.000000000000000   0.000000000000000 1
force C  -0.000000000000000  -0.000000000000000  -0.000000000000000 1
force C  -0.000000000000000   0.000000000000000   0.000000000000000 1
force C  -0.000000000000000   0.000000000000000  -0.000000000000000 1
force C   0.000000000000000   0.000000000000000  -0.000000000000000 1
force C   0.000000000000000   0.000000000000000   0.000000000000000 1
force C  -0.000000000000000   0.000000000000000   0.000000000000000 1
force C  -0.000000000000000  -0.000000000000000   0.000000000000000 1
force C  -0.000000000000000   0.000000000000000   0.000000000000000 1
force C  -0.000000000000000   0.000000000000000  -0.000000000000000 1
force C   0.000000000000000  -0.000000000000000   0.000000000000000 1
force C  -0.000000000000000   0.000000000000000   0.000000000000000 1
force O   0.000000000000000   0.000000000000000  -0.085685565382448 1
force O   0.000000000000000  -0.000000000000000   0.085685565383564 1
force O   0.000000000000000  -0.000000000000000  -0.085685565382448 1
force O   0.000000000000000   0.000000000000000   0.085685565383564 1
force O  -0.000000000000000   0.000000000000000  -0.085685565382448 1
force O   0.000000000000000   0.000000000000000   0.085685565383564 1
force O  -0.000000000000000   0.000000000000000  -0.085685565382445 1
force O  -0.000000000000000   0.000000000000000   0.085685565383564 1
force O  -0.000000000000000   0.000000000000000  -0.085685565382448 1
force O  -0.000000000000000  -0.000000000000000   0.085685565383564 1
force O  -0.000000000000000   0.000000000000000  -0.085685565382445 1
force O  -0.000000000000000  -0.000000000000000   0.085685565383567 1
force O  -0.000000000000000  -0.000000000000000  -0.085685565382672 1
force O   0.000000000000000   0.000000000000000   0.085685565383567 1
force O   0.000000000000000   0.000000000000000  -0.085685565382445 1
force O  -0.000000000000000   0.000000000000000   0.085685565383567 1
force O  -0.000000000000000  -0.000000000000000  -0.085685565382899 1
force O   0.000000000000000   0.000000000000000   0.085685565383564 1
force O  -0.000000000000000   0.000000000000000  -0.085685565382676 1
force O   0.000000000000000  -0.000000000000000   0.085685565383567 1
force O  -0.000000000000000  -0.000000000000000  -0.085685565382445 1
force O  -0.000000000000000   0.000000000000000   0.085685565383564 1
force O  -0.000000000000000  -0.000000000000000  -0.085685565382445 1
force O  -0.000000000000000   0.000000000000000   0.085685565383564 1
force O   0.000000000000000  -0.000000000000000  -0.085685565382903 1
force O  -0.000000000000000   0.000000000000000   0.085685565383564 1
force O  -0.000000000000000  -0.000000000000000  -0.085685565382448 1
force O   0.000000000000000   0.000000000000000   0.085685565383564 1
force O  -0.000000000000000   0.000000000000000  -0.085685565382672 1
force O   0.000000000000000  -0.000000000000000   0.085685565383564 1
force O  -0.000000000000000  -0.000000000000000  -0.085685565382448 1
force O   0.000000000000000   0.000000000000000   0.085685565383564 1

# Energy components:
   A_diel =        0.0747678521078182
   Eewald =    28605.2398146797822847
       EH =    30855.0863630737439962
     Eloc =   -63093.4071990274387645
      Enl =      495.0112953216624305
      Exc =     -454.9357042835495122
 Exc_core =       41.6778574126270485
       KE =      754.7731806316357961
  MuShift =        0.0206063195381389
-------------------------------------
     Etot =    -2796.4590180198874805
       TS =        0.1182435017533111
-------------------------------------
        F =    -2796.5772615216405939

IonicMinimize: Iter:   1  F: -2796.577261521640594  |grad|_K:  1.427e-03  alpha:  1.000e+00  linmin: -9.997e-01  t[s]:   2507.30

#--- Lowdin population analysis ---
# oxidation-state Mo +0.558 +0.558 +0.558 +0.558 +0.558 +0.558 +0.558 +0.558 +0.558 +0.558 +0.558 +0.558 +0.558 +0.558 +0.558 +0.558 +0.558 +0.558 +0.558 +0.558 +0.558 +0.558 +0.558 +0.558 +0.558 +0.558 +0.558 +0.558 +0.558 +0.558 +0.558 +0.558
# oxidation-state C -0.234 -0.234 -0.234 -0.234 -0.234 -0.234 -0.234 -0.234 -0.234 -0.234 -0.234 -0.234 -0.234 -0.234 -0.234 -0.234
# oxidation-state O -0.347 -0.347 -0.347 -0.347 -0.347 -0.347 -0.347 -0.347 -0.347 -0.347 -0.347 -0.347 -0.347 -0.347 -0.347 -0.347 -0.347 -0.347 -0.347 -0.347 -0.347 -0.347 -0.347 -0.347 -0.347 -0.347 -0.347 -0.347 -0.347 -0.347 -0.347 -0.347

	Linear fluid (dielectric constant: 78.4, screening length: 5.74355 Bohr) occupying 0.757111 of unit cell:	Completed after 12 iterations at t[s]:   2519.30

-------- Electronic minimization -----------
	Linear fluid (dielectric constant: 78.4, screening length: 5.74355 Bohr) occupying 0.757111 of unit cell:	Completed after 0 iterations at t[s]:   2529.55
	FillingsUpdate:  mu: -0.247282688  nElectrons: 703.000000
ElecMinimize: Iter:   0  F: -2796.572219974152176  |grad|_K:  1.006e-05  alpha:  1.000e+00
	Linear fluid (dielectric constant: 78.4, screening length: 5.74355 Bohr) occupying 0.756816 of unit cell:	Completed after 14 iterations at t[s]:   2555.22
	Linear fluid (dielectric constant: 78.4, screening length: 5.74355 Bohr) occupying 0.757044 of unit cell:	Completed after 12 iterations at t[s]:   2571.02
	FillingsUpdate:  mu: -0.255808354  nElectrons: 703.000000
	SubspaceRotationAdjust: set factor to 1.09
ElecMinimize: Iter:   1  F: -2796.576099684517430  |grad|_K:  1.063e-05  alpha:  2.924e-01  linmin:  7.186e-05  t[s]:   2586.57
	Linear fluid (dielectric constant: 78.4, screening length: 5.74355 Bohr) occupying 0.757060 of unit cell:	Completed after 12 iterations at t[s]:   2597.94
	Linear fluid (dielectric constant: 78.4, screening length: 5.74355 Bohr) occupying 0.757055 of unit cell:	Completed after 12 iterations at t[s]:   2613.54
	FillingsUpdate:  mu: -0.250968609  nElectrons: 703.000000
	SubspaceRotationAdjust: set factor to 0.925
ElecMinimize: Iter:   2  F: -2796.577859187952981  |grad|_K:  1.711e-06  alpha:  1.178e-01  linmin: -6.060e-05  t[s]:   2629.57
	Linear fluid (dielectric constant: 78.4, screening length: 5.74355 Bohr) occupying 0.757064 of unit cell:	Completed after 3 iterations at t[s]:   2639.12
	Linear fluid (dielectric constant: 78.4, screening length: 5.74355 Bohr) occupying 0.757076 of unit cell:	Completed after 7 iterations at t[s]:   2651.53
	FillingsUpdate:  mu: -0.250540342  nElectrons: 703.000000
	SubspaceRotationAdjust: set factor to 0.692
ElecMinimize: Iter:   3  F: -2796.577965972789116  |grad|_K:  6.595e-07  alpha:  2.764e-01  linmin:  6.301e-05  t[s]:   2666.45
	Linear fluid (dielectric constant: 78.4, screening length: 5.74355 Bohr) occupying 0.757086 of unit cell:	Completed after 3 iterations at t[s]:   2676.19
	Linear fluid (dielectric constant: 78.4, screening length: 5.74355 Bohr) occupying 0.757091 of unit cell:	Completed after 2 iterations at t[s]:   2688.58
	FillingsUpdate:  mu: -0.250530722  nElectrons: 703.000000
	SubspaceRotationAdjust: set factor to 0.666
ElecMinimize: Iter:   4  F: -2796.577989914387217  |grad|_K:  3.990e-07  alpha:  4.166e-01  linmin: -3.461e-05  t[s]:   2702.02
	Linear fluid (dielectric constant: 78.4, screening length: 5.74355 Bohr) occupying 0.757098 of unit cell:	Completed after 3 iterations at t[s]:   2711.49
	Linear fluid (dielectric constant: 78.4, screening length: 5.74355 Bohr) occupying 0.757097 of unit cell:	Completed after 0 iterations at t[s]:   2722.95
	FillingsUpdate:  mu: -0.250335322  nElectrons: 703.000000
	SubspaceRotationAdjust: set factor to 0.482
ElecMinimize: Iter:   5  F: -2796.577998332219067  |grad|_K:  2.333e-07  alpha:  3.923e-01  linmin:  5.680e-05  t[s]:   2735.98
	Linear fluid (dielectric constant: 78.4, screening length: 5.74355 Bohr) occupying 0.757099 of unit cell:	Completed after 1 iterations at t[s]:   2745.21
	Linear fluid (dielectric constant: 78.4, screening length: 5.74355 Bohr) occupying 0.757099 of unit cell:	Completed after 0 iterations at t[s]:   2756.32
	FillingsUpdate:  mu: -0.250442211  nElectrons: 703.000000
	SubspaceRotationAdjust: set factor to 0.478
ElecMinimize: Iter:   6  F: -2796.578000793249430  |grad|_K:  1.212e-07  alpha:  3.517e-01  linmin:  5.404e-06  t[s]:   2769.74
	Linear fluid (dielectric constant: 78.4, screening length: 5.74355 Bohr) occupying 0.757098 of unit cell:	Completed after 2 iterations at t[s]:   2778.68
	Linear fluid (dielectric constant: 78.4, screening length: 5.74355 Bohr) occupying 0.757098 of unit cell:	Completed after 0 iterations at t[s]:   2790.17
	FillingsUpdate:  mu: -0.250433837  nElectrons: 703.000000
	SubspaceRotationAdjust: set factor to 0.669
ElecMinimize: Iter:   7  F: -2796.578001721162764  |grad|_K:  5.719e-08  alpha:  4.602e-01  linmin: -9.206e-05  t[s]:   2803.28
	Linear fluid (dielectric constant: 78.4, screening length: 5.74355 Bohr) occupying 0.757097 of unit cell:	Completed after 0 iterations at t[s]:   2812.34
	Linear fluid (dielectric constant: 78.4, screening length: 5.74355 Bohr) occupying 0.757097 of unit cell:	Completed after 0 iterations at t[s]:   2823.52
	FillingsUpdate:  mu: -0.250436027  nElectrons: 703.000000
	SubspaceRotationAdjust: set factor to 0.877
ElecMinimize: Iter:   8  F: -2796.578002027796629  |grad|_K:  4.370e-08  alpha:  6.191e-01  linmin: -1.396e-05  t[s]:   2836.32
	Linear fluid (dielectric constant: 78.4, screening length: 5.74355 Bohr) occupying 0.757095 of unit cell:	Completed after 2 iterations at t[s]:   2845.36
	Linear fluid (dielectric constant: 78.4, screening length: 5.74355 Bohr) occupying 0.757096 of unit cell:	Completed after 0 iterations at t[s]:   2857.15
	FillingsUpdate:  mu: -0.250406129  nElectrons: 703.000000
	SubspaceRotationAdjust: set factor to 0.604
ElecMinimize: Iter:   9  F: -2796.578002073381413  |grad|_K:  7.623e-08  alpha:  2.274e-01  linmin:  3.044e-05  t[s]:   2870.17
	Linear fluid (dielectric constant: 78.4, screening length: 5.74355 Bohr) occupying 0.757094 of unit cell:	Completed after 2 iterations at t[s]:   2879.33
	Linear fluid (dielectric constant: 78.4, screening length: 5.74355 Bohr) occupying 0.757095 of unit cell:	Completed after 0 iterations at t[s]:   2891.14
	FillingsUpdate:  mu: -0.250427863  nElectrons: 703.000000
	SubspaceRotationAdjust: set factor to 1.09
ElecMinimize: Iter:  10  F: -2796.578002082729199  |grad|_K:  3.378e-08  alpha:  6.118e-02  linmin:  6.502e-06  t[s]:   2904.17
	Linear fluid (dielectric constant: 78.4, screening length: 5.74355 Bohr) occupying 0.757095 of unit cell:	Completed after 0 iterations at t[s]:   2913.12
ElecMinimize: 	Predicted alpha/alphaT>3.000000, increasing alphaT to 1.835301e-01.
	Linear fluid (dielectric constant: 78.4, screening length: 5.74355 Bohr) occupying 0.757095 of unit cell:	Completed after 0 iterations at t[s]:   2923.90
	Linear fluid (dielectric constant: 78.4, screening length: 5.74355 Bohr) occupying 0.757095 of unit cell:	Completed after 0 iterations at t[s]:   2934.97
	FillingsUpdate:  mu: -0.250430806  nElectrons: 703.000000
	SubspaceRotationAdjust: set factor to 1.37
ElecMinimize: Iter:  11  F: -2796.578002133259361  |grad|_K:  2.887e-08  alpha:  4.564e-01  linmin:  2.950e-06  t[s]:   2948.44
	Linear fluid (dielectric constant: 78.4, screening length: 5.74355 Bohr) occupying 0.757094 of unit cell:	Completed after 2 iterations at t[s]:   2957.91
	Linear fluid (dielectric constant: 78.4, screening length: 5.74355 Bohr) occupying 0.757095 of unit cell:	Completed after 0 iterations at t[s]:   2969.51
	FillingsUpdate:  mu: -0.250473601  nElectrons: 703.000000
	SubspaceRotationAdjust: set factor to 0.842
ElecMinimize: Iter:  12  F: -2796.578002173114783  |grad|_K:  1.046e-07  alpha:  6.035e-02  linmin:  3.674e-05  t[s]:   2982.61
ElecMinimize: 	Bad step direction: g.d > 0.
ElecMinimize: 	Undoing step.
	Linear fluid (dielectric constant: 78.4, screening length: 5.74355 Bohr) occupying 0.757095 of unit cell:	Completed after 0 iterations at t[s]:   2991.19
ElecMinimize: 	Step failed: resetting search direction.
	FillingsUpdate:  mu: -0.250473601  nElectrons: 703.000000
	SubspaceRotationAdjust: set factor to 0.578
ElecMinimize: Iter:  13  F: -2796.578002173131154  |grad|_K:  8.664e-08  alpha:  0.000e+00
	Linear fluid (dielectric constant: 78.4, screening length: 5.74355 Bohr) occupying 0.757095 of unit cell:	Completed after 2 iterations at t[s]:   3013.97
	Linear fluid (dielectric constant: 78.4, screening length: 5.74355 Bohr) occupying 0.757095 of unit cell:	Completed after 0 iterations at t[s]:   3025.40
ElecMinimize: 	Step increased F by 7.410154e-08, reducing alpha to 1.937140e-03.
	Linear fluid (dielectric constant: 78.4, screening length: 5.74355 Bohr) occupying 0.757095 of unit cell:	Completed after 0 iterations at t[s]:   3045.33
ElecMinimize: 	Step increased F by 7.808876e-08, reducing alpha to 1.937140e-04.
	Linear fluid (dielectric constant: 78.4, screening length: 5.74355 Bohr) occupying 0.757095 of unit cell:	Completed after 0 iterations at t[s]:   3065.60
ElecMinimize: 	Step increased F by 7.837161e-08, reducing alpha to 1.937140e-05.
ElecMinimize: 	Step failed to reduce F after 3 attempts. Quitting step.
ElecMinimize: 	Undoing step.
	Linear fluid (dielectric constant: 78.4, screening length: 5.74355 Bohr) occupying 0.757095 of unit cell:	Completed after 0 iterations at t[s]:   3086.79
ElecMinimize: 	Step failed along negative gradient direction.
ElecMinimize: Probably at roundoff error limit. (Stopping)
Setting wave functions to eigenvectors of Hamiltonian

# Ionic positions in lattice coordinates:
ion Mo   0.166666670266667   0.083333326383333   0.558936711382254 1
ion Mo   0.083333336933333   0.166666659716667   0.441067286417746 1
ion Mo   0.416666670266667   0.083333326383333   0.558936711382254 1
ion Mo   0.333333336933333   0.166666659716667   0.441067286417746 1
ion Mo   0.666666670266667   0.083333326383333   0.558936711382254 1
ion Mo   0.583333336933333   0.166666659716667   0.441067286417746 1
ion Mo   0.916666670266667   0.083333326383333   0.558936711382254 1
ion Mo   0.833333336933333   0.166666659716667   0.441067286417746 1
ion Mo   0.166666670266667   0.333333326383333   0.558936711382254 1
ion Mo   0.083333336933333   0.416666659716667   0.441067286417746 1
ion Mo   0.416666670266667   0.333333326383333   0.558936711382254 1
ion Mo   0.333333336933333   0.416666659716667   0.441067286417746 1
ion Mo   0.666666670266667   0.333333326383333   0.558936711382254 1
ion Mo   0.583333336933333   0.416666659716667   0.441067286417746 1
ion Mo   0.916666670266667   0.333333326383333   0.558936711382254 1
ion Mo   0.833333336933333   0.416666659716667   0.441067286417746 1
ion Mo   0.166666670266667   0.583333326383333   0.558936711382254 1
ion Mo   0.083333336933333   0.666666659716667   0.441067286417746 1
ion Mo   0.416666670266667   0.583333326383333   0.558936711382254 1
ion Mo   0.333333336933333   0.666666659716667   0.441067286417746 1
ion Mo   0.666666670266667   0.583333326383333   0.558936711382254 1
ion Mo   0.583333336933333   0.666666659716667   0.441067286417746 1
ion Mo   0.916666670266667   0.583333326383333   0.558936711382254 1
ion Mo   0.833333336933333   0.666666659716667   0.441067286417746 1
ion Mo   0.166666670266667   0.833333326383333   0.558936711382254 1
ion Mo   0.083333336933333   0.916666659716667   0.441067286417746 1
ion Mo   0.416666670266667   0.833333326383333   0.558936711382254 1
ion Mo   0.333333336933333   0.916666659716667   0.441067286417746 1
ion Mo   0.666666670266667   0.833333326383333   0.558936711382254 1
ion Mo   0.583333336933333   0.916666659716667   0.441067286417746 1
ion Mo   0.916666670266667   0.833333326383333   0.558936711382254 1
ion Mo   0.833333336933333   0.916666659716667   0.441067286417746 1
ion C   0.000000003600000  -0.000000006950000   0.500001998900000 1
ion C   0.250000003600000  -0.000000006950000   0.500001998900000 1
ion C   0.500000003600000  -0.000000006950000   0.500001998900000 1
ion C   0.750000003600000  -0.000000006950000   0.500001998900000 1
ion C   0.000000003600000   0.249999993050000   0.500001998900000 1
ion C   0.250000003600000   0.249999993050000   0.500001998900000 1
ion C   0.500000003600000   0.249999993050000   0.500001998900000 1
ion C   0.750000003600000   0.249999993050000   0.500001998900000 1
ion C   0.000000003600000   0.499999993050000   0.500001998900000 1
ion C   0.250000003600000   0.499999993050000   0.500001998900000 1
ion C   0.500000003600000   0.499999993050000   0.500001998900000 1
ion C   0.750000003600000   0.499999993050000   0.500001998900000 1
ion C   0.000000003600000   0.749999993050000   0.500001998900000 1
ion C   0.250000003600000   0.749999993050000   0.500001998900000 1
ion C   0.500000003600000   0.749999993050000   0.500001998900000 1
ion C   0.750000003600000   0.749999993050000   0.500001998900000 1
ion O   0.083333336933333   0.166666659716667   0.616220246372437 1
ion O   0.166666670266667   0.083333326383333   0.383783751427563 1
ion O   0.333333336933333   0.166666659716667   0.616220246372437 1
ion O   0.416666670266667   0.083333326383333   0.383783751427563 1
ion O   0.583333336933333   0.166666659716667   0.616220246372437 1
ion O   0.666666670266667   0.083333326383333   0.383783751427563 1
ion O   0.833333336933333   0.166666659716667   0.616220246372437 1
ion O   0.916666670266667   0.083333326383333   0.383783751427563 1
ion O   0.083333336933333   0.416666659716667   0.616220246372437 1
ion O   0.166666670266667   0.333333326383333   0.383783751427563 1
ion O   0.333333336933333   0.416666659716667   0.616220246372437 1
ion O   0.416666670266667   0.333333326383333   0.383783751427563 1
ion O   0.583333336933333   0.416666659716667   0.616220246372437 1
ion O   0.666666670266667   0.333333326383333   0.383783751427563 1
ion O   0.833333336933333   0.416666659716667   0.616220246372437 1
ion O   0.916666670266667   0.333333326383333   0.383783751427563 1
ion O   0.083333336933333   0.666666659716667   0.616220246372437 1
ion O   0.166666670266667   0.583333326383333   0.383783751427563 1
ion O   0.333333336933333   0.666666659716667   0.616220246372437 1
ion O   0.416666670266667   0.583333326383333   0.383783751427563 1
ion O   0.583333336933333   0.666666659716667   0.616220246372437 1
ion O   0.666666670266667   0.583333326383333   0.383783751427563 1
ion O   0.833333336933333   0.666666659716667   0.616220246372437 1
ion O   0.916666670266667   0.583333326383333   0.383783751427563 1
ion O   0.083333336933333   0.916666659716667   0.616220246372437 1
ion O   0.166666670266667   0.833333326383333   0.383783751427563 1
ion O   0.333333336933333   0.916666659716667   0.616220246372437 1
ion O   0.416666670266667   0.833333326383333   0.383783751427563 1
ion O   0.583333336933333   0.916666659716667   0.616220246372437 1
ion O   0.666666670266667   0.833333326383333   0.383783751427563 1
ion O   0.833333336933333   0.916666659716667   0.616220246372437 1
ion O   0.916666670266667   0.833333326383333   0.383783751427563 1


# Forces in Lattice coordinates:
force Mo  -0.000000000000000  -0.000000000000000  -0.001960619292072 1
force Mo   0.000000000000000  -0.000000000000000   0.001960619294347 1
force Mo  -0.000000000000000  -0.000000000000000  -0.001960619292072 1
force Mo  -0.000000000000000  -0.000000000000000   0.001960619294574 1
force Mo   0.000000000000000   0.000000000000000  -0.001960619291845 1
force Mo   0.000000000000000   0.000000000000000   0.001960619294574 1
force Mo   0.000000000000000   0.000000000000000  -0.001960619291845 1
force Mo  -0.000000000000000  -0.000000000000000   0.001960619294346 1
force Mo   0.000000000000000   0.000000000000000  -0.001960619292072 1
force Mo  -0.000000000000000   0.000000000000000   0.001960619294347 1
force Mo   0.000000000000000  -0.000000000000000  -0.001960619292072 1
force Mo   0.000000000000000   0.000000000000000   0.001960619294574 1
force Mo   0.000000000000000   0.000000000000000  -0.001960619291844 1
force Mo   0.000000000000000   0.000000000000000   0.001960619294347 1
force Mo   0.000000000000000  -0.000000000000000  -0.001960619292072 1
force Mo   0.000000000000000  -0.000000000000000   0.001960619294347 1
force Mo   0.000000000000000   0.000000000000000  -0.001960619292072 1
force Mo  -0.000000000000000  -0.000000000000000   0.001960619294346 1
force Mo  -0.000000000000000  -0.000000000000000  -0.001960619291845 1
force Mo   0.000000000000000  -0.000000000000000   0.001960619294346 1
force Mo   0.000000000000000   0.000000000000000  -0.001960619291845 1
force Mo   0.000000000000000   0.000000000000000   0.001960619294574 1
force Mo  -0.000000000000000   0.000000000000000  -0.001960619291845 1
force Mo   0.000000000000000  -0.000000000000000   0.001960619294346 1
force Mo   0.000000000000000   0.000000000000000  -0.001960619292072 1
force Mo   0.000000000000000   0.000000000000000   0.001960619294346 1
force Mo  -0.000000000000000  -0.000000000000000  -0.001960619291844 1
force Mo  -0.000000000000000   0.000000000000000   0.001960619294574 1
force Mo   0.000000000000000  -0.000000000000000  -0.001960619291844 1
force Mo   0.000000000000000   0.000000000000000   0.001960619294346 1
force Mo  -0.000000000000000  -0.000000000000000  -0.001960619291845 1
force Mo  -0.000000000000000   0.000000000000000   0.001960619294346 1
force C  -0.000000000000000   0.000000000000000   0.000000000000000 1
force C   0.000000000000000  -0.000000000000000  -0.000000000000000 1
force C   0.000000000000000   0.000000000000000  -0.000000000000000 1
force C  -0.000000000000000   0.000000000000000   0.000000000000000 1
force C   0.000000000000000  -0.000000000000000  -0.000000000000000 1
force C  -0.000000000000000   0.000000000000000  -0.000000000000000 1
force C  -0.000000000000000  -0.000000000000000   0.000000000000000 1
force C  -0.000000000000000   0.000000000000000  -0.000000000000000 1
force C  -0.000000000000000   0.000000000000000   0.000000000000000 1
force C   0.000000000000000  -0.000000000000000   0.000000000000000 1
force C  -0.000000000000000  -0.000000000000000   0.000000000000000 1
force C   0.000000000000000  -0.000000000000000  -0.000000000000000 1
force C  -0.000000000000000   0.000000000000000  -0.000000000000000 1
force C  -0.000000000000000  -0.000000000000000   0.000000000000000 1
force C  -0.000000000000000   0.000000000000000   0.000000000000000 1
force C  -0.000000000000000  -0.000000000000000   0.000000000000000 1
force O   0.000000000000000   0.000000000000000  -0.004926420478760 1
force O  -0.000000000000000  -0.000000000000000   0.004926420480320 1
force O   0.000000000000000  -0.000000000000000  -0.004926420478757 1
force O  -0.000000000000000   0.000000000000000   0.004926420480317 1
force O   0.000000000000000  -0.000000000000000  -0.004926420478757 1
force O   0.000000000000000   0.000000000000000   0.004926420480317 1
force O  -0.000000000000000  -0.000000000000000  -0.004926420478760 1
force O   0.000000000000000   0.000000000000000   0.004926420479865 1
force O  -0.000000000000000   0.000000000000000  -0.004926420478757 1
force O   0.000000000000000  -0.000000000000000   0.004926420480320 1
force O   0.000000000000000  -0.000000000000000  -0.004926420478760 1
force O   0.000000000000000  -0.000000000000000   0.004926420480320 1
force O   0.000000000000000  -0.000000000000000  -0.004926420478757 1
force O  -0.000000000000000   0.000000000000000   0.004926420480320 1
force O  -0.000000000000000   0.000000000000000  -0.004926420478757 1
force O  -0.000000000000000   0.000000000000000   0.004926420480320 1
force O  -0.000000000000000  -0.000000000000000  -0.004926420478757 1
force O   0.000000000000000  -0.000000000000000   0.004926420480324 1
force O   0.000000000000000  -0.000000000000000  -0.004926420478753 1
force O  -0.000000000000000  -0.000000000000000   0.004926420479865 1
force O  -0.000000000000000  -0.000000000000000  -0.004926420478760 1
force O   0.000000000000000  -0.000000000000000   0.004926420480320 1
force O  -0.000000000000000  -0.000000000000000  -0.004926420478760 1
force O  -0.000000000000000   0.000000000000000   0.004926420480324 1
force O   0.000000000000000  -0.000000000000000  -0.004926420478760 1
force O   0.000000000000000  -0.000000000000000   0.004926420480320 1
force O  -0.000000000000000   0.000000000000000  -0.004926420478757 1
force O   0.000000000000000   0.000000000000000   0.004926420480320 1
force O  -0.000000000000000   0.000000000000000  -0.004926420478760 1
force O   0.000000000000000   0.000000000000000   0.004926420480324 1
force O  -0.000000000000000  -0.000000000000000  -0.004926420478760 1
force O  -0.000000000000000  -0.000000000000000   0.004926420480320 1

# Energy components:
   A_diel =        0.0743373751506490
   Eewald =    28600.8085258988066926
       EH =    30851.6080262960786058
     Eloc =   -63085.6141534694252186
      Enl =      495.0728894093811618
      Exc =     -454.9720402771415593
 Exc_core =       41.6778749721262471
       KE =      754.8680794844085540
  MuShift =        0.0206063195381389
-------------------------------------
     Etot =    -2796.4558539910767649
       TS =        0.1221481036306211
-------------------------------------
        F =    -2796.5780020947072444

IonicMinimize: Iter:   2  F: -2796.578002094707244  |grad|_K:  5.263e-05  alpha:  1.000e+00  linmin: -3.029e-01  t[s]:   3111.82
IonicMinimize: Converged (|grad|_K<1.000000e-04).

#--- Lowdin population analysis ---
# oxidation-state Mo +0.559 +0.559 +0.559 +0.559 +0.559 +0.559 +0.559 +0.559 +0.559 +0.559 +0.559 +0.559 +0.559 +0.559 +0.559 +0.559 +0.559 +0.559 +0.559 +0.559 +0.559 +0.559 +0.559 +0.559 +0.559 +0.559 +0.559 +0.559 +0.559 +0.559 +0.559 +0.559
# oxidation-state C -0.235 -0.235 -0.235 -0.235 -0.235 -0.235 -0.235 -0.235 -0.235 -0.235 -0.235 -0.235 -0.235 -0.235 -0.235 -0.235
# oxidation-state O -0.347 -0.347 -0.347 -0.347 -0.347 -0.347 -0.347 -0.347 -0.347 -0.347 -0.347 -0.347 -0.347 -0.347 -0.347 -0.347 -0.347 -0.347 -0.347 -0.347 -0.347 -0.347 -0.347 -0.347 -0.347 -0.347 -0.347 -0.347 -0.347 -0.347 -0.347 -0.347


Dumping 'NbTe2.fillings' ... done
Dumping 'NbTe2.wfns' ... done
Dumping 'NbTe2.fluidState' ... done
Dumping 'NbTe2.ionpos' ... done
Dumping 'NbTe2.eigenvals' ... done
End date and time: Thu Apr 15 14:02:10 2021  (Duration: 0-0:51:56.66)
Done!
