
*************** JDFTx 1.5.0  ***************

Start date and time: Thu Mar 25 05:14:35 2021
Executable jdftx_gpu with command-line: -i Charged.in -o Charged.out
Running on hosts (process indices):  amax (0-6)
Divided in process groups (process indices):  0 (0)  1 (1)  2 (2)  3 (3)  4 (4)  5 (5)  6 (6)
gpuInit: Found compatible cuda device 0 'Tesla K80'
gpuInit: Found compatible cuda device 1 'Tesla K80'
gpuInit: Found compatible cuda device 2 'Tesla K80'
gpuInit: Found compatible cuda device 3 'Tesla K80'
gpuInit: Found compatible cuda device 4 'Tesla K80'
gpuInit: Found compatible cuda device 5 'Tesla K80'
gpuInit: Found compatible cuda device 6 'Tesla K80'
gpuInit: Selected device 0
Resource initialization completed at t[s]:      3.91
Run totals: 7 processes, 24 threads, 7 GPUs


Input parsed successfully to the following command list (including defaults):

basis kpoint-dependent
cache-projectors no
coords-type Lattice
core-overlap-check none
coulomb-interaction Slab 001
coulomb-truncation-embed 0.5 0.5 0.5
davidson-band-ratio 1.1
dump End State
dump-name NbTe2.$VAR
elec-cutoff 20
elec-eigen-algo Davidson
elec-ex-corr gga-PBE
elec-initial-charge 0.000000
elec-smearing Gauss 0.0073499
electronic-minimize  \
	dirUpdateScheme      FletcherReeves \
	linminMethod         DirUpdateRecommended \
	nIterations          200 \
	history              15 \
	knormThreshold       0 \
	energyDiffThreshold  1e-08 \
	nEnergyDiff          2 \
	alphaTstart          1 \
	alphaTmin            1e-10 \
	updateTestStepSize   yes \
	alphaTreduceFactor   0.1 \
	alphaTincreaseFactor 3 \
	nAlphaAdjustMax      3 \
	wolfeEnergy          0.0001 \
	wolfeGradient        0.9 \
	fdTest               no
exchange-regularization WignerSeitzTruncated
fluid LinearPCM 298.000000 1.013250
fluid-anion F- 1 MeanFieldLJ \
	epsBulk 1 \
	pMol 0 \
	epsInf 1 \
	Pvap 0 \
	sigmaBulk 0 \
	Rvdw 2.24877 \
	Res 0 \
	tauNuc 343133
fluid-cation Na+ 1 MeanFieldLJ \
	epsBulk 1 \
	pMol 0 \
	epsInf 1 \
	Pvap 0 \
	sigmaBulk 0 \
	Rvdw 2.19208 \
	Res 0 \
	tauNuc 343133
fluid-ex-corr lda-TF lda-PZ
fluid-gummel-loop 10 1.000000e-05
fluid-minimize  \
	dirUpdateScheme      PolakRibiere \
	linminMethod         DirUpdateRecommended \
	nIterations          400 \
	history              15 \
	knormThreshold       1e-11 \
	energyDiffThreshold  0 \
	nEnergyDiff          2 \
	alphaTstart          1 \
	alphaTmin            1e-10 \
	updateTestStepSize   yes \
	alphaTreduceFactor   0.1 \
	alphaTincreaseFactor 3 \
	nAlphaAdjustMax      6 \
	wolfeEnergy          0.0001 \
	wolfeGradient        0.9 \
	fdTest               no
fluid-solvent H2O 55.338 ScalarEOS \
	epsBulk 78.4 \
	pMol 0.92466 \
	epsInf 1.77 \
	Pvap 1.06736e-10 \
	sigmaBulk 4.62e-05 \
	Rvdw 2.61727 \
	Res 1.42 \
	tauNuc 343133 \
	poleEl 15 7 1
forces-output-coords Positions
initial-state NbTe2.$VAR
ion C   0.167420009000000   0.083910005000000   0.557180001000000 1
ion C   0.084170000000000   0.167279998000000   0.442830016000000 1
ion C   0.417420009000000   0.083910005000000   0.557180001000000 1
ion C   0.334170030000000   0.167279998000000   0.442830016000000 1
ion C   0.667420068000000   0.083910005000000   0.557180001000000 1
ion C   0.584169990000000   0.167279998000000   0.442830016000000 1
ion C   0.917420048000000   0.083910005000000   0.557180001000000 1
ion C   0.834169970000000   0.167279998000000   0.442830016000000 1
ion C   0.167420006000000   0.333909977000000   0.557180001000000 1
ion C   0.084170003000000   0.417279982000000   0.442830016000000 1
ion C   0.417420006000000   0.333909977000000   0.557180001000000 1
ion C   0.334170033000000   0.417279982000000   0.442830016000000 1
ion C   0.667420066000000   0.333909977000000   0.557180001000000 1
ion C   0.584169993000000   0.417279982000000   0.442830016000000 1
ion C   0.917420046000000   0.333909977000000   0.557180001000000 1
ion C   0.834169973000000   0.417279982000000   0.442830016000000 1
ion C   0.167420007000000   0.583909995000000   0.557180001000000 1
ion C   0.084170014000000   0.667280000000000   0.442830016000000 1
ion C   0.417420007000000   0.583909995000000   0.557180001000000 1
ion C   0.334170033000000   0.667280000000000   0.442830016000000 1
ion C   0.667420086000000   0.583909995000000   0.557180001000000 1
ion C   0.584169974000000   0.667280000000000   0.442830016000000 1
ion C   0.917420066000000   0.583909995000000   0.557180001000000 1
ion C   0.834169994000000   0.667280000000000   0.442830016000000 1
ion C   0.167419984000000   0.833909967000000   0.557180001000000 1
ion C   0.084169971000000   0.917279972000000   0.442830016000000 1
ion C   0.417419984000000   0.833909967000000   0.557180001000000 1
ion C   0.334169991000000   0.917279972000000   0.442830016000000 1
ion C   0.667420044000000   0.833909967000000   0.557180001000000 1
ion C   0.584169932000000   0.917279972000000   0.442830016000000 1
ion C   0.917420024000000   0.833909967000000   0.557180001000000 1
ion C   0.834169951000000   0.917279972000000   0.442830016000000 1
ion Ti   0.000810000000000   0.000620000000000   0.500010017000000 1
ion Ti   0.083959996000000   0.167189998000000   0.616909963000000 1
ion Ti   0.167630011000000   0.083990000000000   0.383100011000000 1
ion Ti   0.250810013000000   0.000620000000000   0.500010017000000 1
ion Ti   0.333960005000000   0.167189998000000   0.616909963000000 1
ion Ti   0.417629991000000   0.083990000000000   0.383100011000000 1
ion Ti   0.500810033000000   0.000620000000000   0.500010017000000 1
ion Ti   0.583960005000000   0.167189998000000   0.616909963000000 1
ion Ti   0.667630050000000   0.083990000000000   0.383100011000000 1
ion Ti   0.750810052000000   0.000620000000000   0.500010017000000 1
ion Ti   0.833959986000000   0.167189998000000   0.616909963000000 1
ion Ti   0.917630030000000   0.083990000000000   0.383100011000000 1
ion Ti   0.000810008000000   0.250620007000000   0.500010017000000 1
ion Ti   0.083959987000000   0.417189959000000   0.616909963000000 1
ion Ti   0.167630008000000   0.333990012000000   0.383100011000000 1
ion Ti   0.250810008000000   0.250620007000000   0.500010017000000 1
ion Ti   0.333959997000000   0.417189959000000   0.616909963000000 1
ion Ti   0.417629988000000   0.333990012000000   0.383100011000000 1
ion Ti   0.500810047000000   0.250620007000000   0.500010017000000 1
ion Ti   0.583959997000000   0.417189959000000   0.616909963000000 1
ion Ti   0.667630068000000   0.333990012000000   0.383100011000000 1
ion Ti   0.750810028000000   0.250620007000000   0.500010017000000 1
ion Ti   0.833959977000000   0.417189959000000   0.616909963000000 1
ion Ti   0.917630048000000   0.333990012000000   0.383100011000000 1
ion Ti   0.000809985000000   0.500619979000000   0.500010017000000 1
ion Ti   0.083960001000000   0.667190023000000   0.616909963000000 1
ion Ti   0.167630006000000   0.583989984000000   0.383100011000000 1
ion Ti   0.250809985000000   0.500619979000000   0.500010017000000 1
ion Ti   0.333960021000000   0.667190023000000   0.616909963000000 1
ion Ti   0.417629986000000   0.583989984000000   0.383100011000000 1
ion Ti   0.500810025000000   0.500619979000000   0.500010017000000 1
ion Ti   0.583960001000000   0.667190023000000   0.616909963000000 1
ion Ti   0.667630065000000   0.583989984000000   0.383100011000000 1
ion Ti   0.750809985000000   0.500619979000000   0.500010017000000 1
ion Ti   0.833960021000000   0.667190023000000   0.616909963000000 1
ion Ti   0.917630045000000   0.583989984000000   0.383100011000000 1
ion Ti   0.000809986000000   0.750619997000000   0.500010017000000 1
ion Ti   0.083959998000000   0.917189995000000   0.616909963000000 1
ion Ti   0.167629983000000   0.833989957000000   0.383100011000000 1
ion Ti   0.250809986000000   0.750619997000000   0.500010017000000 1
ion Ti   0.333960018000000   0.917189995000000   0.616909963000000 1
ion Ti   0.417629963000000   0.833989957000000   0.383100011000000 1
ion Ti   0.500810025000000   0.750619997000000   0.500010017000000 1
ion Ti   0.583959998000000   0.917189995000000   0.616909963000000 1
ion Ti   0.667630023000000   0.833989957000000   0.383100011000000 1
ion Ti   0.750810006000000   0.750619997000000   0.500010017000000 1
ion Ti   0.833960018000000   0.917189995000000   0.616909963000000 1
ion Ti   0.917630003000000   0.833989957000000   0.383100011000000 1
ion O   0.000760000000000   0.000570000000000   0.658959978000000 1
ion O   0.000810000000000   0.000600000000000   0.341039979000000 1
ion O   0.250759995000000   0.000570000000000   0.658959978000000 1
ion O   0.250810012000000   0.000600000000000   0.341039979000000 1
ion O   0.500759995000000   0.000570000000000   0.658959978000000 1
ion O   0.500810032000000   0.000600000000000   0.341039979000000 1
ion O   0.750760055000000   0.000570000000000   0.658959978000000 1
ion O   0.750810052000000   0.000600000000000   0.341039979000000 1
ion O   0.000759998000000   0.250570002000000   0.658959978000000 1
ion O   0.000810008000000   0.250600010000000   0.341039979000000 1
ion O   0.250759988000000   0.250570002000000   0.658959978000000 1
ion O   0.250810008000000   0.250600010000000   0.341039979000000 1
ion O   0.500760008000000   0.250570002000000   0.658959978000000 1
ion O   0.500810048000000   0.250600010000000   0.341039979000000 1
ion O   0.750760027000000   0.250570002000000   0.658959978000000 1
ion O   0.750810028000000   0.250600010000000   0.341039979000000 1
ion O   0.000760016000000   0.500569997000000   0.658959978000000 1
ion O   0.000809994000000   0.500599959000000   0.341039979000000 1
ion O   0.250759997000000   0.500569997000000   0.658959978000000 1
ion O   0.250809994000000   0.500599959000000   0.341039979000000 1
ion O   0.500760016000000   0.500569997000000   0.658959978000000 1
ion O   0.500810034000000   0.500599959000000   0.341039979000000 1
ion O   0.750760036000000   0.500569997000000   0.658959978000000 1
ion O   0.750810014000000   0.500599959000000   0.341039979000000 1
ion O   0.000760014000000   0.750569969000000   0.658959978000000 1
ion O   0.000810014000000   0.750599977000000   0.341039979000000 1
ion O   0.250759994000000   0.750569969000000   0.658959978000000 1
ion O   0.250810014000000   0.750599977000000   0.341039979000000 1
ion O   0.500760014000000   0.750569969000000   0.658959978000000 1
ion O   0.500810054000000   0.750599977000000   0.341039979000000 1
ion O   0.750760034000000   0.750569969000000   0.658959978000000 1
ion O   0.750810034000000   0.750599977000000   0.341039979000000 1
ion-species GBRV/$ID_pbe.uspp
ion-width Ecut
ionic-minimize  \
	dirUpdateScheme      L-BFGS \
	linminMethod         DirUpdateRecommended \
	nIterations          500 \
	history              15 \
	knormThreshold       0.0001 \
	energyDiffThreshold  1e-06 \
	nEnergyDiff          2 \
	alphaTstart          1 \
	alphaTmin            1e-10 \
	updateTestStepSize   yes \
	alphaTreduceFactor   0.1 \
	alphaTincreaseFactor 3 \
	nAlphaAdjustMax      3 \
	wolfeEnergy          0.0001 \
	wolfeGradient        0.9 \
	fdTest               no
kpoint   0.000000000000   0.000000000000   0.000000000000  1.00000000000000
kpoint-folding 3 3 1 
latt-move-scale 1 1 1
latt-scale 1.88973 1.88973 1.88973 
lattice Triclinic 12.0174 12.0182 21.9917 90 90 119.998
lattice-minimize  \
	dirUpdateScheme      L-BFGS \
	linminMethod         DirUpdateRecommended \
	nIterations          0 \
	history              15 \
	knormThreshold       0 \
	energyDiffThreshold  1e-06 \
	nEnergyDiff          2 \
	alphaTstart          1 \
	alphaTmin            1e-10 \
	updateTestStepSize   yes \
	alphaTreduceFactor   0.1 \
	alphaTincreaseFactor 3 \
	nAlphaAdjustMax      3 \
	wolfeEnergy          0.0001 \
	wolfeGradient        0.9 \
	fdTest               no
lcao-params -1 1e-06 0.0073499
pcm-variant CANDLE
spintype no-spin
subspace-rotation-factor 1 yes
symmetries automatic
symmetry-threshold 0.0001



---------- Setting up symmetries ----------

Found 24 point-group symmetries of the bravais lattice
Found 16 space-group symmetries with basis
Applied RMS atom displacement 6.10547e-07 bohrs to make symmetries exact.

---------- Initializing the Grid ----------
R = 
[    22.7096   -11.3548          0  ]
[          0    19.6688          0  ]
[          0          0    41.5583  ]
unit cell volume = 18562.9
G =
[   0.276675   0.159724         -0  ]
[          0   0.319449          0  ]
[          0         -0    0.15119  ]
Minimum fftbox size, Smin = [  92  92  168  ]
Chosen fftbox size, S = [  96  96  168  ]

---------- Exchange Correlation functional ----------
Initalized PBE GGA exchange.
Initalized PBE GGA correlation.

---------- Setting up pseudopotentials ----------
Width of ionic core gaussian charges (only for fluid interactions / plotting) set to 0.397384

Reading pseudopotential file '/home/guoxy/vasp/jdftx-1.5.0/build/pseudopotentials/GBRV/c_pbe.uspp':
  Title: C.  Created by USPP 7.3.6 on 3-2-2014
  Reference state energy: -5.406344.  4 valence electrons in orbitals:
    |200>  occupation: 2  eigenvalue: -0.504890
    |210>  occupation: 2  eigenvalue: -0.194356
  lMax: 1  lLocal: 2  QijEcut: 5
  4 projectors sampled on a log grid with 503 points:
    l: 0  eig: -0.504890  rCut: 1.3
    l: 0  eig: 0.000000  rCut: 1.3
    l: 1  eig: -0.194357  rCut: 1.3
    l: 1  eig: 0.000000  rCut: 1.3
  Partial core density with radius 1.1
  Transforming core density to a uniform radial grid of dG=0.02 with 1477 points.
  Transforming local potential to a uniform radial grid of dG=0.02 with 1477 points.
  Transforming nonlocal projectors to a uniform radial grid of dG=0.02 with 432 points.
  Transforming density augmentations to a uniform radial grid of dG=0.02 with 1477 points.
  Transforming atomic orbitals to a uniform radial grid of dG=0.02 with 432 points.
  Core radius for overlap checks: 1.30 bohrs.

Reading pseudopotential file '/home/guoxy/vasp/jdftx-1.5.0/build/pseudopotentials/GBRV/ti_pbe.uspp':
  Title: Ti.  Created by USPP 7.3.6 on 31-3-15
  Reference state energy: -59.020943.  12 valence electrons in orbitals:
    |300>  occupation: 2  eigenvalue: -2.777623
    |310>  occupation: 6  eigenvalue: -1.894596
    |400>  occupation: 2  eigenvalue: -0.438610
    |320>  occupation: 1  eigenvalue: -0.583119
  lMax: 2  lLocal: 3  QijEcut: 6
  6 projectors sampled on a log grid with 597 points:
    l: 0  eig: -2.777624  rCut: 1.8
    l: 0  eig: -0.438611  rCut: 1.8
    l: 1  eig: -1.894596  rCut: 1.8
    l: 1  eig: 0.500000  rCut: 1.8
    l: 2  eig: -0.583118  rCut: 1.8
    l: 2  eig: 0.150000  rCut: 1.8
  Partial core density with radius 0.8
  Transforming core density to a uniform radial grid of dG=0.02 with 1477 points.
  Transforming local potential to a uniform radial grid of dG=0.02 with 1477 points.
  Transforming nonlocal projectors to a uniform radial grid of dG=0.02 with 432 points.
  Transforming density augmentations to a uniform radial grid of dG=0.02 with 1477 points.
  Transforming atomic orbitals to a uniform radial grid of dG=0.02 with 432 points.
  Core radius for overlap checks: 1.80 bohrs.

Reading pseudopotential file '/home/guoxy/vasp/jdftx-1.5.0/build/pseudopotentials/GBRV/o_pbe.uspp':
  Title: O.  Created by USPP 7.3.6 on 3-2-2014
  Reference state energy: -15.894388.  6 valence electrons in orbitals:
    |200>  occupation: 2  eigenvalue: -0.878823
    |210>  occupation: 4  eigenvalue: -0.332131
  lMax: 2  lLocal: 2  QijEcut: 6
  5 projectors sampled on a log grid with 511 points:
    l: 0  eig: -0.878823  rCut: 1.25
    l: 0  eig: 0.000000  rCut: 1.25
    l: 1  eig: -0.332132  rCut: 1.25
    l: 1  eig: 0.000000  rCut: 1.25
    l: 2  eig: 1.000000  rCut: 1.25
  Partial core density with radius 0.7
  Transforming core density to a uniform radial grid of dG=0.02 with 1477 points.
  Transforming local potential to a uniform radial grid of dG=0.02 with 1477 points.
  Transforming nonlocal projectors to a uniform radial grid of dG=0.02 with 432 points.
  Transforming density augmentations to a uniform radial grid of dG=0.02 with 1477 points.
  Transforming atomic orbitals to a uniform radial grid of dG=0.02 with 432 points.
  Core radius for overlap checks: 1.25 bohrs.

Initialized 3 species with 112 total atoms.

Folded 1 k-points by 3x3x1 to 9 k-points.

---------- Setting up k-points, bands, fillings ----------
Adding inversion symmetry to k-mesh for non-inversion-symmetric unit cell.
Reduced to 5 k-points under symmetry. 
Computing the number of bands and number of electrons
Calculating initial fillings.
nElectrons: 896.000000   nBands: 736   nStates: 5

----- Setting up reduced wavefunction bases (one per k-point) -----
average nbasis = 79305.444 , ideal nbasis = 79302.148

---------- Setting up coulomb interaction ----------
Fluid mode embedding: using embedded box, but periodic Coulomb kernel.
(Fluid response is responsible for (approximate) separation between periodic images.)
Setting up double-sized grid for truncated Coulomb potentials:
R = 
[    22.7096   -11.3548          0  ]
[          0    19.6688          0  ]
[          0          0    83.1166  ]
unit cell volume = 37125.8
G =
[   0.276675   0.159724         -0  ]
[          0   0.319449          0  ]
[          0         -0  0.0755949  ]
Chosen fftbox size, S = [  96  96  336  ]
Integer grid location selected as the embedding center:
   Grid: [  48  48  84  ]
   Lattice: [  0.5  0.5  0.5  ]
   Cartesian: [  5.67742  9.83442  20.7791  ]
Constructing Wigner-Seitz cell: 8 faces (6 quadrilaterals, 2 hexagons)
Range-separation parameter for embedded mesh potentials due to point charges: 0.627457 bohrs.

Initializing van der Waals corrections
	NOTE: vdW corrections apply only for interactions with fluid.
	 C:  C6:   30.35 Eh-a0^6  R0: 2.744 a0
	Ti:  C6:  187.33 Eh-a0^6  R0: 2.952 a0
	 O:  C6:   12.14 Eh-a0^6  R0: 2.536 a0

---------- Setting up ewald sum ----------
Optimum gaussian width for ewald sums = 6.061764 bohr.
Real space sum over 405 unit cells with max indices [  4  4  2  ]
Reciprocal space sum over 10125 terms with max indices [  7  7  22  ]

---------- Allocating electronic variables ----------
Initializing wave functions:  linear combination of atomic orbitals
C pseudo-atom occupations:   s ( 2 )  p ( 2 )
Ti pseudo-atom occupations:   s ( 2 0 )  p ( 6 )  d ( 4 )
O pseudo-atom occupations:   s ( 2 )  p ( 4 )
	FillingsUpdate:  mu: -0.521334805  nElectrons: 896.000000
LCAOMinimize: Iter:   0  F: -3427.0289140149875493  |grad|_K:  6.364e-03  alpha:  1.000e+00
	FillingsUpdate:  mu: -0.519218027  nElectrons: 896.000000
LCAOMinimize: Iter:   1  F: -3434.1120838943838862  |grad|_K:  6.252e-03  alpha:  6.269e-02  linmin: -2.644e-01  cgtest:  9.275e-01  t[s]:    175.07
LCAOMinimize: 	Wrong curvature in test step, increasing alphaT to 1.880810e-01.
	FillingsUpdate:  mu: -0.516200175  nElectrons: 896.000000
LCAOMinimize: Iter:   2  F: -3441.4438552431793141  |grad|_K:  6.184e-03  alpha: -7.842e-01  linmin: -2.081e-01  cgtest:  9.106e-01  t[s]:    237.56
	FillingsUpdate:  mu: -0.510150266  nElectrons: 896.000000
LCAOMinimize: Iter:   3  F: -3448.7780776564654843  |grad|_K:  6.145e-03  alpha:  6.164e-02  linmin: -2.138e-01  cgtest:  8.980e-01  t[s]:    300.85
LCAOMinimize: 	Wrong curvature in test step, increasing alphaT to 1.849162e-01.
	FillingsUpdate:  mu: -0.494523271  nElectrons: 896.000000
LCAOMinimize: Iter:   4  F: -3456.2410059203880337  |grad|_K:  6.106e-03  alpha: -5.353e-01  linmin: -2.259e-01  cgtest:  8.859e-01  t[s]:    363.61
	FillingsUpdate:  mu: -0.464038174  nElectrons: 896.000000
LCAOMinimize: Iter:   5  F: -3463.9444454322642741  |grad|_K:  6.016e-03  alpha:  6.316e-02  linmin: -2.413e-01  cgtest:  8.745e-01  t[s]:    427.41
LCAOMinimize: 	Wrong curvature in test step, increasing alphaT to 1.894725e-01.
	FillingsUpdate:  mu: -0.422333980  nElectrons: 896.000000
LCAOMinimize: Iter:   6  F: -3471.4227084570943589  |grad|_K:  5.811e-03  alpha: -5.910e-01  linmin: -2.588e-01  cgtest:  8.720e-01  t[s]:    490.15
	FillingsUpdate:  mu: -0.367576306  nElectrons: 896.000000
LCAOMinimize: Iter:   7  F: -3478.4944125372580856  |grad|_K:  5.418e-03  alpha:  6.623e-02  linmin: -2.776e-01  cgtest:  8.724e-01  t[s]:    554.46
LCAOMinimize: 	Wrong curvature in test step, increasing alphaT to 1.986800e-01.
	FillingsUpdate:  mu: -0.305558381  nElectrons: 896.000000
LCAOMinimize: Iter:   8  F: -3484.2267794717909055  |grad|_K:  4.843e-03  alpha: -4.044e+00  linmin: -4.031e-01  cgtest:  8.875e-01  t[s]:    617.13
	FillingsUpdate:  mu: -0.244254964  nElectrons: 896.000000
LCAOMinimize: Iter:   9  F: -3488.3511785844339101  |grad|_K:  4.172e-03  alpha:  6.557e-02  linmin: -4.230e-01  cgtest:  9.073e-01  t[s]:    680.86
LCAOMinimize: Encountered beta<0, resetting CG.
LCAOMinimize: 	Predicted alpha/alphaT>3.000000, increasing alphaT to 1.967011e-01.
LCAOMinimize: 	Step increased F by 2.433633e+00, reducing alpha to 3.911646e-02.
	FillingsUpdate:  mu: -0.210324803  nElectrons: 896.000000
LCAOMinimize: Iter:  10  F: -3490.1541139655591905  |grad|_K:  3.759e-03  alpha:  3.912e-02  linmin: -4.273e-01  cgtest:  9.520e-01  t[s]:    808.21
LCAOMinimize: Encountered beta<0, resetting CG.
LCAOMinimize: 	Predicted alpha/alphaT>3.000000, increasing alphaT to 1.173494e-01.
LCAOMinimize: 	Predicted alpha/alphaT>3.000000, increasing alphaT to 3.520482e-01.
	FillingsUpdate:  mu: -0.038871166  nElectrons: 896.000000
LCAOMinimize: Iter:  11  F: -3495.4282067189337795  |grad|_K:  7.188e-04  alpha:  1.949e-01  linmin: -4.117e-01  cgtest:  7.184e-01  t[s]:    908.34
LCAOMinimize: Encountered beta<0, resetting CG.
	FillingsUpdate:  mu: -0.035805144  nElectrons: 896.000000
LCAOMinimize: Iter:  12  F: -3495.5757413807909870  |grad|_K:  2.103e-04  alpha:  2.117e-01  linmin:  7.497e-02  cgtest: -1.662e-01  t[s]:    972.04
	FillingsUpdate:  mu: -0.022347245  nElectrons: 896.000000
LCAOMinimize: Iter:  13  F: -3495.5869085148256090  |grad|_K:  1.834e-04  alpha:  2.009e-01  linmin:  4.404e-03  cgtest:  1.185e-01  t[s]:   1035.91
	FillingsUpdate:  mu: -0.030391812  nElectrons: 896.000000
LCAOMinimize: Iter:  14  F: -3495.6025336494744806  |grad|_K:  9.617e-05  alpha:  3.473e-01  linmin:  3.849e-03  cgtest: -1.215e-01  t[s]:   1099.63
	FillingsUpdate:  mu: -0.025389489  nElectrons: 896.000000
LCAOMinimize: Iter:  15  F: -3495.6049044486444473  |grad|_K:  3.903e-05  alpha:  1.886e-01  linmin: -1.860e-03  cgtest:  3.729e-02  t[s]:   1163.13
	FillingsUpdate:  mu: -0.024826311  nElectrons: 896.000000
LCAOMinimize: Iter:  16  F: -3495.6050447376396733  |grad|_K:  1.254e-05  alpha:  6.722e-02  linmin: -2.407e-03  cgtest: -2.010e-03  t[s]:   1226.92
LCAOMinimize: 	Predicted alpha/alphaT>3.000000, increasing alphaT to 2.016556e-01.
	FillingsUpdate:  mu: -0.024748380  nElectrons: 896.000000
LCAOMinimize: Iter:  17  F: -3495.6050884140186099  |grad|_K:  4.822e-06  alpha:  2.038e-01  linmin:  8.192e-04  cgtest: -5.184e-03  t[s]:   1308.55
	FillingsUpdate:  mu: -0.025153097  nElectrons: 896.000000
LCAOMinimize: Iter:  18  F: -3495.6050987108415029  |grad|_K:  4.392e-06  alpha:  3.264e-01  linmin: -1.655e-04  cgtest:  2.621e-03  t[s]:   1372.32
	FillingsUpdate:  mu: -0.025056709  nElectrons: 896.000000
LCAOMinimize: Iter:  19  F: -3495.6051025652359385  |grad|_K:  3.292e-06  alpha:  1.471e-01  linmin:  1.426e-05  cgtest: -1.908e-03  t[s]:   1436.45
	FillingsUpdate:  mu: -0.024975618  nElectrons: 896.000000
LCAOMinimize: Iter:  20  F: -3495.6051041418254499  |grad|_K:  1.313e-06  alpha:  1.072e-01  linmin:  6.703e-06  cgtest:  1.229e-03  t[s]:   1500.08
	FillingsUpdate:  mu: -0.025011133  nElectrons: 896.000000
LCAOMinimize: Iter:  21  F: -3495.6051044406749497  |grad|_K:  5.271e-07  alpha:  1.277e-01  linmin: -1.582e-04  cgtest:  7.452e-04  t[s]:   1563.86
	FillingsUpdate:  mu: -0.025005287  nElectrons: 896.000000
LCAOMinimize: Iter:  22  F: -3495.6051045835592959  |grad|_K:  3.610e-07  alpha:  3.777e-01  linmin: -1.244e-03  cgtest:  4.762e-03  t[s]:   1627.31
LCAOMinimize: Converged (|Delta F|<1.000000e-06 for 2 iters).
----- createFluidSolver() ----- (Fluid-side solver setup)
   Initializing fluid molecule 'H2O'
     Initializing site 'O'
       Electron density: proportional to exp(-r/0.36935)*erfc((r-0.51523)/0.36823) with norm 6.826
       Charge density: gaussian nuclear width 0.478731 with net site charge 0.826
       Polarizability: cuspless exponential with width 0.32 and norm 3.73
       Hard sphere radius: 2.57003 bohrs
       Positions in reference frame:
         [ +0.000000 +0.000000 +0.000000 ]
     Initializing site 'H'
       Electron density: proportional to exp(-r/0.34641)*erfc((r-0)/0.390882) with norm 0.587
       Charge density: gaussian nuclear width 0.377945 with net site charge -0.413
       Polarizability: cuspless exponential with width 0.39 and norm 3.3
       Positions in reference frame:
         [ +0.000000 -1.441945 +1.122523 ]
         [ +0.000000 +1.441945 +1.122523 ]
     Net charge: 0   dipole magnitude: 0.927204
     Initializing spherical shell mfKernel with radius 2.61727 Bohr
     deltaS corrections:
       site 'O': -7.54299
       site 'H': -6.83917
   Initializing fluid molecule 'Na+'
     Initializing site 'Na'
       Electron density: proportional to exp(-r/0.19682)*erfc((r-0.71491)/0.41314) with norm 8.1383
       Charge density: gaussian nuclear width 0.365347 with net site charge -1
       Hard sphere radius: 1.86327 bohrs
       Positions in reference frame:
         [ +0.000000 +0.000000 +0.000000 ]
     Net charge: -1   dipole magnitude: 0
     Initializing gaussian mfKernel with width: 1.55004 Bohr
     deltaS corrections:
       site 'Na': -22.3555
   Initializing fluid molecule 'F-'
     Initializing site 'F'
       Electron density: proportional to exp(-r/0.38886)*erfc((r-0)/0.438782) with norm 8
       Charge density: gaussian nuclear width 0.374796 with net site charge 1
       Hard sphere radius: 2.39995 bohrs
       Positions in reference frame:
         [ +0.000000 +0.000000 +0.000000 ]
     Net charge: 1   dipole magnitude: 0
     Initializing gaussian mfKernel with width: 1.59012 Bohr
     deltaS corrections:
       site 'F': -9.04335

Correction to mu due to finite nuclear width = -0.0239459
   Cavity determined by nc: 0.00142 and sigma: 0.707107
   Nonlocal vdW cavity from gaussian model electron density with norm = 8 and sigma = 0.993594 bohr
   Charge asymmetry in cavity with sensitivity pCavity = 36.5 e-bohr/Eh
   Electrostatic cavity expanded by eta = 1.46 bohrs
   Weighted density cavitation model constrained by Nbulk: 0.0049383 bohr^-3, Pvap: 3.14029 kPa, Rvdw: 2.61727 bohr and sigmaBulk: 4.62e-05 Eh/bohr^2 at T: 298 K.
   Weighted density dispersion model using vdW pair potentials with single solvent site with sqrtC6eff: 0.77 SI.


---- Citations for features of the code used in this run ----

   Software package:
      R. Sundararaman, K. Letchworth-Weaver, K.A. Schwarz, D. Gunceler, Y. Ozhabes and T.A. Arias, 'JDFTx: software for joint density-functional theory', SoftwareX 6, 278 (2017)

   gga-PBE exchange-correlation functional:
      J.P. Perdew, K. Burke and M. Ernzerhof, Phys. Rev. Lett. 77, 3865 (1996)

   Pseudopotentials:
      KF Garrity, JW Bennett, KM Rabe and D Vanderbilt, Comput. Mater. Sci. 81, 446 (2014)

   Truncated Coulomb potentials:
      R. Sundararaman and T.A. Arias, Phys. Rev. B 87, 165122 (2013)

   Van der Waals correction pair-potentials:
      S. Grimme, J. Comput. Chem. 27, 1787 (2006)

   Charge-asymmetric nonlocally-determined local-electric (CANDLE) solvation model:
      R. Sundararaman and W.A. Goddard III, J. Chem. Phys. 142, 064107 (2015)

   Total energy minimization with Auxiliary Hamiltonian:
      C. Freysoldt, S. Boeck, and J. Neugebauer, Phys. Rev. B 79, 241103(R) (2009)

This list may not be complete. Please suggest additional citations or
report any other bugs at https://github.com/shankar1729/jdftx/issues

Initialization completed successfully at t[s]:   1643.24

Fluid solver invoked on fresh (partially random / LCAO) wavefunctions
Running a vacuum solve first:

-------- Initial electronic minimization -----------
	FillingsUpdate:  mu: -0.025005287  nElectrons: 896.000000
ElecMinimize: Iter:   0  F: -3495.605104583562479  |grad|_K:  1.871e-04  alpha:  1.000e+00
	FillingsUpdate:  mu: -0.059859216  nElectrons: 896.000000
	SubspaceRotationAdjust: set factor to 1
ElecMinimize: Iter:   1  F: -3499.594817226070518  |grad|_K:  9.517e-05  alpha:  3.918e-01  linmin:  8.090e-05  t[s]:   1813.19
	FillingsUpdate:  mu: -0.123223630  nElectrons: 896.000000
	SubspaceRotationAdjust: set factor to 0.673
ElecMinimize: Iter:   2  F: -3500.673734132644313  |grad|_K:  7.204e-05  alpha:  4.095e-01  linmin:  8.567e-06  t[s]:   1919.05
	FillingsUpdate:  mu: -0.052027455  nElectrons: 896.000000
	SubspaceRotationAdjust: set factor to 0.491
ElecMinimize: Iter:   3  F: -3500.977851113530505  |grad|_K:  4.702e-05  alpha:  2.092e-01  linmin:  6.705e-05  t[s]:   2024.49
	FillingsUpdate:  mu: -0.069008855  nElectrons: 896.000000
	SubspaceRotationAdjust: set factor to 0.435
ElecMinimize: Iter:   4  F: -3501.143433671646562  |grad|_K:  2.246e-05  alpha:  2.588e-01  linmin: -1.190e-04  t[s]:   2130.79
	FillingsUpdate:  mu: -0.091171814  nElectrons: 896.000000
	SubspaceRotationAdjust: set factor to 0.33
ElecMinimize: Iter:   5  F: -3501.217148214889676  |grad|_K:  1.583e-05  alpha:  4.891e-01  linmin:  1.237e-04  t[s]:   2236.81
	FillingsUpdate:  mu: -0.077739912  nElectrons: 896.000000
	SubspaceRotationAdjust: set factor to 0.287
ElecMinimize: Iter:   6  F: -3501.238098696088855  |grad|_K:  9.337e-06  alpha:  2.852e-01  linmin: -2.320e-05  t[s]:   2342.65
	FillingsUpdate:  mu: -0.073178616  nElectrons: 896.000000
	SubspaceRotationAdjust: set factor to 0.253
ElecMinimize: Iter:   7  F: -3501.246801143720859  |grad|_K:  5.915e-06  alpha:  3.395e-01  linmin:  5.556e-05  t[s]:   2448.15
	FillingsUpdate:  mu: -0.077380366  nElectrons: 896.000000
	SubspaceRotationAdjust: set factor to 0.267
ElecMinimize: Iter:   8  F: -3501.250661249832319  |grad|_K:  3.680e-06  alpha:  3.788e-01  linmin:  1.454e-05  t[s]:   2554.30
	FillingsUpdate:  mu: -0.078879434  nElectrons: 896.000000
	SubspaceRotationAdjust: set factor to 0.314
ElecMinimize: Iter:   9  F: -3501.252143799624264  |grad|_K:  2.362e-06  alpha:  3.743e-01  linmin:  1.295e-06  t[s]:   2661.29
	FillingsUpdate:  mu: -0.077716616  nElectrons: 896.000000
	SubspaceRotationAdjust: set factor to 0.303
ElecMinimize: Iter:  10  F: -3501.252892612004871  |grad|_K:  2.045e-06  alpha:  4.578e-01  linmin:  2.470e-06  t[s]:   2767.24
	FillingsUpdate:  mu: -0.077243057  nElectrons: 896.000000
	SubspaceRotationAdjust: set factor to 0.31
ElecMinimize: Iter:  11  F: -3501.253308639280931  |grad|_K:  1.274e-06  alpha:  3.394e-01  linmin:  3.543e-07  t[s]:   2872.81
	FillingsUpdate:  mu: -0.077746450  nElectrons: 896.000000
	SubspaceRotationAdjust: set factor to 0.367
ElecMinimize: Iter:  12  F: -3501.253517094832205  |grad|_K:  9.316e-07  alpha:  4.379e-01  linmin:  3.064e-07  t[s]:   2978.16
	FillingsUpdate:  mu: -0.077761193  nElectrons: 896.000000
	SubspaceRotationAdjust: set factor to 0.403
ElecMinimize: Iter:  13  F: -3501.253623811614943  |grad|_K:  7.045e-07  alpha:  4.195e-01  linmin:  2.626e-07  t[s]:   3083.31
	FillingsUpdate:  mu: -0.077750143  nElectrons: 896.000000
	SubspaceRotationAdjust: set factor to 0.364
ElecMinimize: Iter:  14  F: -3501.253680356500809  |grad|_K:  5.897e-07  alpha:  3.886e-01  linmin:  6.819e-07  t[s]:   3188.59
	FillingsUpdate:  mu: -0.077829396  nElectrons: 896.000000
	SubspaceRotationAdjust: set factor to 0.272
ElecMinimize: Iter:  15  F: -3501.253706461746788  |grad|_K:  3.697e-07  alpha:  2.561e-01  linmin: -2.826e-08  t[s]:   3294.32
	FillingsUpdate:  mu: -0.077860910  nElectrons: 896.000000
	SubspaceRotationAdjust: set factor to 0.312
ElecMinimize: Iter:  16  F: -3501.253720953288848  |grad|_K:  2.213e-07  alpha:  3.617e-01  linmin:  3.922e-07  t[s]:   3399.23
	FillingsUpdate:  mu: -0.077820501  nElectrons: 896.000000
	SubspaceRotationAdjust: set factor to 0.304
ElecMinimize: Iter:  17  F: -3501.253726015825578  |grad|_K:  1.343e-07  alpha:  3.531e-01  linmin:  4.396e-08  t[s]:   3504.67
	FillingsUpdate:  mu: -0.077834094  nElectrons: 896.000000
	SubspaceRotationAdjust: set factor to 0.267
ElecMinimize: Iter:  18  F: -3501.253727999879629  |grad|_K:  1.036e-07  alpha:  3.755e-01  linmin: -7.535e-09  t[s]:   3611.03
	FillingsUpdate:  mu: -0.077858268  nElectrons: 896.000000
	SubspaceRotationAdjust: set factor to 0.252
ElecMinimize: Iter:  19  F: -3501.253729009059953  |grad|_K:  6.038e-08  alpha:  3.209e-01  linmin: -7.364e-09  t[s]:   3716.48
	FillingsUpdate:  mu: -0.077853448  nElectrons: 896.000000
	SubspaceRotationAdjust: set factor to 0.308
ElecMinimize: Iter:  20  F: -3501.253729488690169  |grad|_K:  4.624e-08  alpha:  4.487e-01  linmin:  1.426e-08  t[s]:   3822.58
	FillingsUpdate:  mu: -0.077841758  nElectrons: 896.000000
	SubspaceRotationAdjust: set factor to 0.318
ElecMinimize: Iter:  21  F: -3501.253729735831257  |grad|_K:  3.395e-08  alpha:  3.943e-01  linmin:  2.313e-08  t[s]:   3928.08
	FillingsUpdate:  mu: -0.077843946  nElectrons: 896.000000
	SubspaceRotationAdjust: set factor to 0.328
ElecMinimize: Iter:  22  F: -3501.253729862437922  |grad|_K:  2.642e-08  alpha:  3.745e-01  linmin: -5.054e-09  t[s]:   4033.57
	FillingsUpdate:  mu: -0.077846716  nElectrons: 896.000000
	SubspaceRotationAdjust: set factor to 0.382
ElecMinimize: Iter:  23  F: -3501.253729952736194  |grad|_K:  1.901e-08  alpha:  4.408e-01  linmin: -1.259e-09  t[s]:   4139.14
	FillingsUpdate:  mu: -0.077836286  nElectrons: 896.000000
	SubspaceRotationAdjust: set factor to 0.41
ElecMinimize: Iter:  24  F: -3501.253729998973540  |grad|_K:  1.477e-08  alpha:  4.357e-01  linmin: -3.117e-08  t[s]:   4244.83
	FillingsUpdate:  mu: -0.077835577  nElectrons: 896.000000
	SubspaceRotationAdjust: set factor to 0.387
ElecMinimize: Iter:  25  F: -3501.253730022448963  |grad|_K:  1.092e-08  alpha:  3.661e-01  linmin: -2.562e-08  t[s]:   4350.59
	FillingsUpdate:  mu: -0.077838684  nElectrons: 896.000000
	SubspaceRotationAdjust: set factor to 0.284
ElecMinimize: Iter:  26  F: -3501.253730030992301  |grad|_K:  7.583e-09  alpha:  2.435e-01  linmin: -1.269e-07  t[s]:   4456.38
	FillingsUpdate:  mu: -0.077839928  nElectrons: 896.000000
	SubspaceRotationAdjust: set factor to 0.303
ElecMinimize: Iter:  27  F: -3501.253730037787136  |grad|_K:  5.031e-09  alpha:  4.162e-01  linmin:  4.693e-07  t[s]:   4562.43
ElecMinimize: Converged (|Delta F|<1.000000e-08 for 2 iters).
Setting wave functions to eigenvectors of Hamiltonian
Vacuum energy after initial minimize, F = -3501.253730037787136

	Linear fluid (dielectric constant: 78.4, screening length: 5.74355 Bohr) occupying 0.726115 of unit cell:	Completed after 20 iterations at t[s]:   4583.90

-------- Electronic minimization -----------
	Linear fluid (dielectric constant: 78.4, screening length: 5.74355 Bohr) occupying 0.726115 of unit cell:	Completed after 0 iterations at t[s]:   4607.40
	FillingsUpdate:  mu: -0.218831264  nElectrons: 896.000000
ElecMinimize: Iter:   0  F: -3501.249917924041711  |grad|_K:  5.332e-07  alpha:  1.000e+00
	Linear fluid (dielectric constant: 78.4, screening length: 5.74355 Bohr) occupying 0.726253 of unit cell:	Completed after 5 iterations at t[s]:   4693.25
	Linear fluid (dielectric constant: 78.4, screening length: 5.74355 Bohr) occupying 0.726248 of unit cell:	Completed after 0 iterations at t[s]:   4726.11
	FillingsUpdate:  mu: -0.218970213  nElectrons: 896.000000
	SubspaceRotationAdjust: set factor to 0.405
ElecMinimize: Iter:   1  F: -3501.249998529280219  |grad|_K:  3.615e-07  alpha:  9.669e-01  linmin:  2.282e-07  t[s]:   4769.99
	Linear fluid (dielectric constant: 78.4, screening length: 5.74355 Bohr) occupying 0.726358 of unit cell:	Completed after 12 iterations at t[s]:   4807.49
	Linear fluid (dielectric constant: 78.4, screening length: 5.74355 Bohr) occupying 0.726328 of unit cell:	Completed after 7 iterations at t[s]:   4843.03
	FillingsUpdate:  mu: -0.218056242  nElectrons: 896.000000
	SubspaceRotationAdjust: set factor to 0.399
ElecMinimize: Iter:   2  F: -3501.250025214996185  |grad|_K:  2.841e-07  alpha:  7.016e-01  linmin: -1.579e-08  t[s]:   4888.18
	Linear fluid (dielectric constant: 78.4, screening length: 5.74355 Bohr) occupying 0.726388 of unit cell:	Completed after 6 iterations at t[s]:   4925.13
	Linear fluid (dielectric constant: 78.4, screening length: 5.74355 Bohr) occupying 0.726367 of unit cell:	Completed after 3 iterations at t[s]:   4958.84
	FillingsUpdate:  mu: -0.218286226  nElectrons: 896.000000
	SubspaceRotationAdjust: set factor to 0.332
ElecMinimize: Iter:   3  F: -3501.250036154747704  |grad|_K:  1.717e-07  alpha:  4.590e-01  linmin:  2.774e-07  t[s]:   5003.16
	Linear fluid (dielectric constant: 78.4, screening length: 5.74355 Bohr) occupying 0.726382 of unit cell:	Completed after 2 iterations at t[s]:   5038.97
	Linear fluid (dielectric constant: 78.4, screening length: 5.74355 Bohr) occupying 0.726383 of unit cell:	Completed after 0 iterations at t[s]:   5071.34
	FillingsUpdate:  mu: -0.218133344  nElectrons: 896.000000
	SubspaceRotationAdjust: set factor to 0.295
ElecMinimize: Iter:   4  F: -3501.250040305824768  |grad|_K:  1.129e-07  alpha:  4.820e-01  linmin: -1.087e-06  t[s]:   5115.34
	Linear fluid (dielectric constant: 78.4, screening length: 5.74355 Bohr) occupying 0.726387 of unit cell:	Completed after 2 iterations at t[s]:   5151.98
	Linear fluid (dielectric constant: 78.4, screening length: 5.74355 Bohr) occupying 0.726387 of unit cell:	Completed after 0 iterations at t[s]:   5184.35
	FillingsUpdate:  mu: -0.218075614  nElectrons: 896.000000
	SubspaceRotationAdjust: set factor to 0.337
ElecMinimize: Iter:   5  F: -3501.250042045730879  |grad|_K:  6.695e-08  alpha:  4.488e-01  linmin: -8.551e-07  t[s]:   5227.82
	Linear fluid (dielectric constant: 78.4, screening length: 5.74355 Bohr) occupying 0.726387 of unit cell:	Completed after 2 iterations at t[s]:   5263.86
	Linear fluid (dielectric constant: 78.4, screening length: 5.74355 Bohr) occupying 0.726387 of unit cell:	Completed after 0 iterations at t[s]:   5296.31
	FillingsUpdate:  mu: -0.218098022  nElectrons: 896.000000
	SubspaceRotationAdjust: set factor to 0.364
ElecMinimize: Iter:   6  F: -3501.250042746699364  |grad|_K:  3.207e-08  alpha:  5.118e-01  linmin: -2.904e-06  t[s]:   5340.23
	Linear fluid (dielectric constant: 78.4, screening length: 5.74355 Bohr) occupying 0.726385 of unit cell:	Completed after 0 iterations at t[s]:   5376.07
	Linear fluid (dielectric constant: 78.4, screening length: 5.74355 Bohr) occupying 0.726385 of unit cell:	Completed after 0 iterations at t[s]:   5408.07
	FillingsUpdate:  mu: -0.218099944  nElectrons: 896.000000
	SubspaceRotationAdjust: set factor to 0.427
ElecMinimize: Iter:   7  F: -3501.250042947704060  |grad|_K:  1.722e-08  alpha:  6.116e-01  linmin: -2.797e-06  t[s]:   5451.76
	Linear fluid (dielectric constant: 78.4, screening length: 5.74355 Bohr) occupying 0.726384 of unit cell:	Completed after 0 iterations at t[s]:   5487.70
	Linear fluid (dielectric constant: 78.4, screening length: 5.74355 Bohr) occupying 0.726384 of unit cell:	Completed after 0 iterations at t[s]:   5520.61
	FillingsUpdate:  mu: -0.218099857  nElectrons: 896.000000
	SubspaceRotationAdjust: set factor to 0.539
ElecMinimize: Iter:   8  F: -3501.250043006677970  |grad|_K:  1.227e-08  alpha:  6.368e-01  linmin:  5.790e-09  t[s]:   5564.31
	Linear fluid (dielectric constant: 78.4, screening length: 5.74355 Bohr) occupying 0.726383 of unit cell:	Completed after 1 iterations at t[s]:   5601.50
	Linear fluid (dielectric constant: 78.4, screening length: 5.74355 Bohr) occupying 0.726384 of unit cell:	Completed after 0 iterations at t[s]:   5634.21
ElecMinimize: 	Step increased F by 5.243237e-08, reducing alpha to 1.371059e-02.
	Linear fluid (dielectric constant: 78.4, screening length: 5.74355 Bohr) occupying 0.726384 of unit cell:	Completed after 0 iterations at t[s]:   5705.33
ElecMinimize: 	Step increased F by 5.323500e-08, reducing alpha to 1.371059e-03.
	Linear fluid (dielectric constant: 78.4, screening length: 5.74355 Bohr) occupying 0.726384 of unit cell:	Completed after 0 iterations at t[s]:   5776.70
ElecMinimize: 	Step increased F by 5.339962e-08, reducing alpha to 1.371059e-04.
ElecMinimize: 	Step failed to reduce F after 3 attempts. Quitting step.
ElecMinimize: 	Undoing step.
	Linear fluid (dielectric constant: 78.4, screening length: 5.74355 Bohr) occupying 0.726384 of unit cell:	Completed after 0 iterations at t[s]:   5847.41
ElecMinimize: 	Step failed: resetting search direction.
	FillingsUpdate:  mu: -0.218134003  nElectrons: 896.000000
	SubspaceRotationAdjust: set factor to 0.516
ElecMinimize: Iter:   9  F: -3501.250042953319735  |grad|_K:  2.378e-08  alpha:  1.371e-04
	Linear fluid (dielectric constant: 78.4, screening length: 5.74355 Bohr) occupying 0.726384 of unit cell:	Completed after 3 iterations at t[s]:   5927.91
	Linear fluid (dielectric constant: 78.4, screening length: 5.74355 Bohr) occupying 0.726384 of unit cell:	Completed after 0 iterations at t[s]:   5961.26
	FillingsUpdate:  mu: -0.218116496  nElectrons: 896.000000
	SubspaceRotationAdjust: set factor to 0.373
ElecMinimize: Iter:  10  F: -3501.250043015070332  |grad|_K:  2.604e-08  alpha:  2.722e-01  linmin:  5.379e-05  t[s]:   6004.82
	Linear fluid (dielectric constant: 78.4, screening length: 5.74355 Bohr) occupying 0.726384 of unit cell:	Completed after 0 iterations at t[s]:   6040.93
	Linear fluid (dielectric constant: 78.4, screening length: 5.74355 Bohr) occupying 0.726384 of unit cell:	Completed after 0 iterations at t[s]:   6073.17
	FillingsUpdate:  mu: -0.218116588  nElectrons: 896.000000
	SubspaceRotationAdjust: set factor to 0.396
ElecMinimize: Iter:  11  F: -3501.250043040337005  |grad|_K:  2.499e-08  alpha:  3.132e-01  linmin:  4.419e-08  t[s]:   6116.64
	Linear fluid (dielectric constant: 78.4, screening length: 5.74355 Bohr) occupying 0.726384 of unit cell:	Completed after 2 iterations at t[s]:   6153.27
	Linear fluid (dielectric constant: 78.4, screening length: 5.74355 Bohr) occupying 0.726384 of unit cell:	Completed after 0 iterations at t[s]:   6185.81
ElecMinimize: 	Step increased F by 1.192211e-08, reducing alpha to 5.018357e-03.
	Linear fluid (dielectric constant: 78.4, screening length: 5.74355 Bohr) occupying 0.726384 of unit cell:	Completed after 1 iterations at t[s]:   6256.50
ElecMinimize: 	Step increased F by 5.357788e-08, reducing alpha to 5.018357e-04.
	Linear fluid (dielectric constant: 78.4, screening length: 5.74355 Bohr) occupying 0.726384 of unit cell:	Completed after 0 iterations at t[s]:   6327.44
ElecMinimize: 	Step increased F by 5.188394e-08, reducing alpha to 5.018357e-05.
ElecMinimize: 	Step failed to reduce F after 3 attempts. Quitting step.
ElecMinimize: 	Undoing step.
	Linear fluid (dielectric constant: 78.4, screening length: 5.74355 Bohr) occupying 0.726384 of unit cell:	Completed after 0 iterations at t[s]:   6398.52
ElecMinimize: 	Step failed: resetting search direction.
	FillingsUpdate:  mu: -0.218085135  nElectrons: 896.000000
	SubspaceRotationAdjust: set factor to 0.314
ElecMinimize: Iter:  12  F: -3501.250042988458063  |grad|_K:  2.777e-08  alpha:  5.018e-05
	Linear fluid (dielectric constant: 78.4, screening length: 5.74355 Bohr) occupying 0.726384 of unit cell:	Completed after 2 iterations at t[s]:   6478.35
	Linear fluid (dielectric constant: 78.4, screening length: 5.74355 Bohr) occupying 0.726384 of unit cell:	Completed after 0 iterations at t[s]:   6511.05
	FillingsUpdate:  mu: -0.218109880  nElectrons: 896.000000
	SubspaceRotationAdjust: set factor to 0.147
ElecMinimize: Iter:  13  F: -3501.250043009342335  |grad|_K:  1.094e-08  alpha:  1.572e-01  linmin:  8.078e-05  t[s]:   6555.01
	Linear fluid (dielectric constant: 78.4, screening length: 5.74355 Bohr) occupying 0.726384 of unit cell:	Completed after 0 iterations at t[s]:   6590.97
ElecMinimize: 	Predicted alpha/alphaT>3.000000, increasing alphaT to 4.716491e-01.
	Linear fluid (dielectric constant: 78.4, screening length: 5.74355 Bohr) occupying 0.726383 of unit cell:	Completed after 0 iterations at t[s]:   6623.53
	Linear fluid (dielectric constant: 78.4, screening length: 5.74355 Bohr) occupying 0.726384 of unit cell:	Completed after 0 iterations at t[s]:   6655.89
	FillingsUpdate:  mu: -0.218110899  nElectrons: 896.000000
	SubspaceRotationAdjust: set factor to 0.151
ElecMinimize: Iter:  14  F: -3501.250043009780256  |grad|_K:  6.432e-09  alpha:  2.681e-01  linmin: -4.321e-05  t[s]:   6699.76
	Linear fluid (dielectric constant: 78.4, screening length: 5.74355 Bohr) occupying 0.726383 of unit cell:	Completed after 0 iterations at t[s]:   6735.99
ElecMinimize: 	Predicted alpha/alphaT>3.000000, increasing alphaT to 8.042658e-01.
	Linear fluid (dielectric constant: 78.4, screening length: 5.74355 Bohr) occupying 0.726383 of unit cell:	Completed after 0 iterations at t[s]:   6767.51
	Linear fluid (dielectric constant: 78.4, screening length: 5.74355 Bohr) occupying 0.726383 of unit cell:	Completed after 0 iterations at t[s]:   6799.35
	FillingsUpdate:  mu: -0.218110872  nElectrons: 896.000000
	SubspaceRotationAdjust: set factor to 0.201
ElecMinimize: Iter:  15  F: -3501.250043024999741  |grad|_K:  7.582e-09  alpha:  9.305e-01  linmin:  1.185e-07  t[s]:   6843.60
	Linear fluid (dielectric constant: 78.4, screening length: 5.74355 Bohr) occupying 0.726383 of unit cell:	Completed after 2 iterations at t[s]:   6879.55
	Linear fluid (dielectric constant: 78.4, screening length: 5.74355 Bohr) occupying 0.726383 of unit cell:	Completed after 0 iterations at t[s]:   6912.30
ElecMinimize: 	Step increased F by 2.305342e-08, reducing alpha to 5.484874e-03.
	Linear fluid (dielectric constant: 78.4, screening length: 5.74355 Bohr) occupying 0.726383 of unit cell:	Completed after 1 iterations at t[s]:   6983.47
ElecMinimize: 	Step increased F by 5.071706e-08, reducing alpha to 5.484874e-04.
	Linear fluid (dielectric constant: 78.4, screening length: 5.74355 Bohr) occupying 0.726383 of unit cell:	Completed after 0 iterations at t[s]:   7054.75
ElecMinimize: 	Step increased F by 4.990216e-08, reducing alpha to 5.484874e-05.
ElecMinimize: 	Step failed to reduce F after 3 attempts. Quitting step.
ElecMinimize: 	Undoing step.
	Linear fluid (dielectric constant: 78.4, screening length: 5.74355 Bohr) occupying 0.726383 of unit cell:	Completed after 0 iterations at t[s]:   7125.67
ElecMinimize: 	Step failed: resetting search direction.
	FillingsUpdate:  mu: -0.218102655  nElectrons: 896.000000
	SubspaceRotationAdjust: set factor to 0.189
ElecMinimize: Iter:  16  F: -3501.250042975092128  |grad|_K:  3.315e-08  alpha:  5.485e-05
	Linear fluid (dielectric constant: 78.4, screening length: 5.74355 Bohr) occupying 0.726383 of unit cell:	Completed after 2 iterations at t[s]:   7204.84
	Linear fluid (dielectric constant: 78.4, screening length: 5.74355 Bohr) occupying 0.726383 of unit cell:	Completed after 3 iterations at t[s]:   7237.85
	FillingsUpdate:  mu: -0.218132140  nElectrons: 896.000000
	SubspaceRotationAdjust: set factor to 0.088
ElecMinimize: Iter:  17  F: -3501.250042998899062  |grad|_K:  9.232e-09  alpha:  2.407e-01  linmin:  1.844e-04  t[s]:   7282.54
	Linear fluid (dielectric constant: 78.4, screening length: 5.74355 Bohr) occupying 0.726383 of unit cell:	Completed after 0 iterations at t[s]:   7318.22
ElecMinimize: 	Predicted alpha/alphaT>3.000000, increasing alphaT to 7.221054e-01.
	Linear fluid (dielectric constant: 78.4, screening length: 5.74355 Bohr) occupying 0.726383 of unit cell:	Completed after 0 iterations at t[s]:   7349.37
	Linear fluid (dielectric constant: 78.4, screening length: 5.74355 Bohr) occupying 0.726383 of unit cell:	Completed after 0 iterations at t[s]:   7381.15
	FillingsUpdate:  mu: -0.218132156  nElectrons: 896.000000
	SubspaceRotationAdjust: set factor to 0.154
ElecMinimize: Iter:  18  F: -3501.250043015803840  |grad|_K:  6.461e-09  alpha:  8.279e-01  linmin: -3.150e-07  t[s]:   7424.72
	Linear fluid (dielectric constant: 78.4, screening length: 5.74355 Bohr) occupying 0.726383 of unit cell:	Completed after 0 iterations at t[s]:   7460.40
	Linear fluid (dielectric constant: 78.4, screening length: 5.74355 Bohr) occupying 0.726383 of unit cell:	Completed after 0 iterations at t[s]:   7492.14
	FillingsUpdate:  mu: -0.218132167  nElectrons: 896.000000
	SubspaceRotationAdjust: set factor to 0.183
ElecMinimize: Iter:  19  F: -3501.250043028544042  |grad|_K:  7.770e-09  alpha:  1.027e+00  linmin: -4.233e-07  t[s]:   7535.44
	Linear fluid (dielectric constant: 78.4, screening length: 5.74355 Bohr) occupying 0.726383 of unit cell:	Completed after 3 iterations at t[s]:   7571.52
	Linear fluid (dielectric constant: 78.4, screening length: 5.74355 Bohr) occupying 0.726383 of unit cell:	Completed after 0 iterations at t[s]:   7605.12
ElecMinimize: 	Step increased F by 2.583920e-08, reducing alpha to 5.983547e-03.
	Linear fluid (dielectric constant: 78.4, screening length: 5.74355 Bohr) occupying 0.726383 of unit cell:	Completed after 0 iterations at t[s]:   7675.53
ElecMinimize: 	Step increased F by 1.302442e-08, reducing alpha to 5.983547e-04.
	Linear fluid (dielectric constant: 78.4, screening length: 5.74355 Bohr) occupying 0.726383 of unit cell:	Completed after 0 iterations at t[s]:   7745.62
ElecMinimize: 	Step increased F by 1.175658e-08, reducing alpha to 5.983547e-05.
ElecMinimize: 	Step failed to reduce F after 3 attempts. Quitting step.
ElecMinimize: 	Undoing step.
	Linear fluid (dielectric constant: 78.4, screening length: 5.74355 Bohr) occupying 0.726383 of unit cell:	Completed after 0 iterations at t[s]:   7815.97
ElecMinimize: 	Step failed: resetting search direction.
	FillingsUpdate:  mu: -0.218051266  nElectrons: 896.000000
	SubspaceRotationAdjust: set factor to 0.138
ElecMinimize: Iter:  20  F: -3501.250043016780182  |grad|_K:  4.437e-08  alpha:  5.984e-05
	Linear fluid (dielectric constant: 78.4, screening length: 5.74355 Bohr) occupying 0.726383 of unit cell:	Completed after 3 iterations at t[s]:   7895.36
	Linear fluid (dielectric constant: 78.4, screening length: 5.74355 Bohr) occupying 0.726383 of unit cell:	Completed after 2 iterations at t[s]:   7928.18
ElecMinimize: 	Step increased F by 8.289589e-09, reducing alpha to 2.596143e-02.
	Linear fluid (dielectric constant: 78.4, screening length: 5.74355 Bohr) occupying 0.726383 of unit cell:	Completed after 3 iterations at t[s]:   7999.59
ElecMinimize: 	Step increased F by 4.875938e-08, reducing alpha to 2.596143e-03.
	Linear fluid (dielectric constant: 78.4, screening length: 5.74355 Bohr) occupying 0.726383 of unit cell:	Completed after 0 iterations at t[s]:   8070.72
ElecMinimize: 	Step increased F by 5.931770e-08, reducing alpha to 2.596143e-04.
ElecMinimize: 	Step failed to reduce F after 3 attempts. Quitting step.
ElecMinimize: 	Undoing step.
	Linear fluid (dielectric constant: 78.4, screening length: 5.74355 Bohr) occupying 0.726383 of unit cell:	Completed after 0 iterations at t[s]:   8140.82
ElecMinimize: 	Step failed along negative gradient direction.
ElecMinimize: Probably at roundoff error limit. (Stopping)
Setting wave functions to eigenvectors of Hamiltonian
Single-point solvation energy estimate, DeltaF = +0.003687080396503

# Ionic positions in lattice coordinates:
ion C   0.167420028750000   0.083909986000000   0.557180001000000 1
ion C   0.084169990750000   0.167279988000000   0.442830016000000 1
ion C   0.417420028750000   0.083909986000000   0.557180001000000 1
ion C   0.334169990750000   0.167279988000000   0.442830016000000 1
ion C   0.667420028750000   0.083909986000000   0.557180001000000 1
ion C   0.584169990750000   0.167279988000000   0.442830016000000 1
ion C   0.917420028750000   0.083909986000000   0.557180001000000 1
ion C   0.834169990750000   0.167279988000000   0.442830016000000 1
ion C   0.167420028750000   0.333909986000000   0.557180001000000 1
ion C   0.084169990750000   0.417279988000000   0.442830016000000 1
ion C   0.417420028750000   0.333909986000000   0.557180001000000 1
ion C   0.334169990750000   0.417279988000000   0.442830016000000 1
ion C   0.667420028750000   0.333909986000000   0.557180001000000 1
ion C   0.584169990750000   0.417279988000000   0.442830016000000 1
ion C   0.917420028750000   0.333909986000000   0.557180001000000 1
ion C   0.834169990750000   0.417279988000000   0.442830016000000 1
ion C   0.167420028750000   0.583909986000000   0.557180001000000 1
ion C   0.084169990750000   0.667279988000000   0.442830016000000 1
ion C   0.417420028750000   0.583909986000000   0.557180001000000 1
ion C   0.334169990750000   0.667279988000000   0.442830016000000 1
ion C   0.667420028750000   0.583909986000000   0.557180001000000 1
ion C   0.584169990750000   0.667279988000000   0.442830016000000 1
ion C   0.917420028750000   0.583909986000000   0.557180001000000 1
ion C   0.834169990750000   0.667279988000000   0.442830016000000 1
ion C   0.167420028750000   0.833909986000000   0.557180001000000 1
ion C   0.084169990750000   0.917279988000000   0.442830016000000 1
ion C   0.417420028750000   0.833909986000000   0.557180001000000 1
ion C   0.334169990750000   0.917279988000000   0.442830016000000 1
ion C   0.667420028750000   0.833909986000000   0.557180001000000 1
ion C   0.584169990750000   0.917279988000000   0.442830016000000 1
ion C   0.917420028750000   0.833909986000000   0.557180001000000 1
ion C   0.834169990750000   0.917279988000000   0.442830016000000 1
ion Ti   0.000810010750000   0.000619995750000   0.500010017000000 1
ion Ti   0.083960001625000   0.167189993750000   0.616909963000000 1
ion Ti   0.167630016750000   0.083989988250000   0.383100011000000 1
ion Ti   0.250810010750000   0.000619995750000   0.500010017000000 1
ion Ti   0.333960001625000   0.167189993750000   0.616909963000000 1
ion Ti   0.417630016750000   0.083989988250000   0.383100011000000 1
ion Ti   0.500810010750000   0.000619995750000   0.500010017000000 1
ion Ti   0.583960001625000   0.167189993750000   0.616909963000000 1
ion Ti   0.667630016750000   0.083989988250000   0.383100011000000 1
ion Ti   0.750810010750000   0.000619995750000   0.500010017000000 1
ion Ti   0.833960001625000   0.167189993750000   0.616909963000000 1
ion Ti   0.917630016750000   0.083989988250000   0.383100011000000 1
ion Ti   0.000810010750000   0.250619995750000   0.500010017000000 1
ion Ti   0.083960001625000   0.417189993750000   0.616909963000000 1
ion Ti   0.167630016750000   0.333989988250000   0.383100011000000 1
ion Ti   0.250810010750000   0.250619995750000   0.500010017000000 1
ion Ti   0.333960001625000   0.417189993750000   0.616909963000000 1
ion Ti   0.417630016750000   0.333989988250000   0.383100011000000 1
ion Ti   0.500810010750000   0.250619995750000   0.500010017000000 1
ion Ti   0.583960001625000   0.417189993750000   0.616909963000000 1
ion Ti   0.667630016750000   0.333989988250000   0.383100011000000 1
ion Ti   0.750810010750000   0.250619995750000   0.500010017000000 1
ion Ti   0.833960001625000   0.417189993750000   0.616909963000000 1
ion Ti   0.917630016750000   0.333989988250000   0.383100011000000 1
ion Ti   0.000810010750000   0.500619995750000   0.500010017000000 1
ion Ti   0.083960001625000   0.667189993750000   0.616909963000000 1
ion Ti   0.167630016750000   0.583989988250000   0.383100011000000 1
ion Ti   0.250810010750000   0.500619995750000   0.500010017000000 1
ion Ti   0.333960001625000   0.667189993750000   0.616909963000000 1
ion Ti   0.417630016750000   0.583989988250000   0.383100011000000 1
ion Ti   0.500810010750000   0.500619995750000   0.500010017000000 1
ion Ti   0.583960001625000   0.667189993750000   0.616909963000000 1
ion Ti   0.667630016750000   0.583989988250000   0.383100011000000 1
ion Ti   0.750810010750000   0.500619995750000   0.500010017000000 1
ion Ti   0.833960001625000   0.667189993750000   0.616909963000000 1
ion Ti   0.917630016750000   0.583989988250000   0.383100011000000 1
ion Ti   0.000810010750000   0.750619995750000   0.500010017000000 1
ion Ti   0.083960001625000   0.917189993750000   0.616909963000000 1
ion Ti   0.167630016750000   0.833989988250000   0.383100011000000 1
ion Ti   0.250810010750000   0.750619995750000   0.500010017000000 1
ion Ti   0.333960001625000   0.917189993750000   0.616909963000000 1
ion Ti   0.417630016750000   0.833989988250000   0.383100011000000 1
ion Ti   0.500810010750000   0.750619995750000   0.500010017000000 1
ion Ti   0.583960001625000   0.917189993750000   0.616909963000000 1
ion Ti   0.667630016750000   0.833989988250000   0.383100011000000 1
ion Ti   0.750810010750000   0.750619995750000   0.500010017000000 1
ion Ti   0.833960001625000   0.917189993750000   0.616909963000000 1
ion Ti   0.917630016750000   0.833989988250000   0.383100011000000 1
ion O   0.000760011687500   0.000569992000000   0.658959978000000 1
ion O   0.000810021250000   0.000599986500000   0.341039979000000 1
ion O   0.250760011687500   0.000569992000000   0.658959978000000 1
ion O   0.250810021250000   0.000599986500000   0.341039979000000 1
ion O   0.500760011687500   0.000569992000000   0.658959978000000 1
ion O   0.500810021250000   0.000599986500000   0.341039979000000 1
ion O   0.750760011687500   0.000569992000000   0.658959978000000 1
ion O   0.750810021250000   0.000599986500000   0.341039979000000 1
ion O   0.000760011687500   0.250569992000000   0.658959978000000 1
ion O   0.000810021250000   0.250599986500000   0.341039979000000 1
ion O   0.250760011687500   0.250569992000000   0.658959978000000 1
ion O   0.250810021250000   0.250599986500000   0.341039979000000 1
ion O   0.500760011687500   0.250569992000000   0.658959978000000 1
ion O   0.500810021250000   0.250599986500000   0.341039979000000 1
ion O   0.750760011687500   0.250569992000000   0.658959978000000 1
ion O   0.750810021250000   0.250599986500000   0.341039979000000 1
ion O   0.000760011687500   0.500569992000000   0.658959978000000 1
ion O   0.000810021250000   0.500599986500000   0.341039979000000 1
ion O   0.250760011687500   0.500569992000000   0.658959978000000 1
ion O   0.250810021250000   0.500599986500000   0.341039979000000 1
ion O   0.500760011687500   0.500569992000000   0.658959978000000 1
ion O   0.500810021250000   0.500599986500000   0.341039979000000 1
ion O   0.750760011687500   0.500569992000000   0.658959978000000 1
ion O   0.750810021250000   0.500599986500000   0.341039979000000 1
ion O   0.000760011687500   0.750569992000000   0.658959978000000 1
ion O   0.000810021250000   0.750599986500000   0.341039979000000 1
ion O   0.250760011687500   0.750569992000000   0.658959978000000 1
ion O   0.250810021250000   0.750599986500000   0.341039979000000 1
ion O   0.500760011687500   0.750569992000000   0.658959978000000 1
ion O   0.500810021250000   0.750599986500000   0.341039979000000 1
ion O   0.750760011687500   0.750569992000000   0.658959978000000 1
ion O   0.750810021250000   0.750599986500000   0.341039979000000 1


# Forces in Lattice coordinates:
force C   0.000447395332599   0.000249938829021   0.004845090834267 1
force C  -0.000547496487400   0.000204070231634  -0.003873306523154 1
force C   0.000447395332599   0.000249938829021   0.004845090834267 1
force C  -0.000547496487400   0.000204070231634  -0.003873306523097 1
force C   0.000447395332599   0.000249938829021   0.004845090834267 1
force C  -0.000547496487400   0.000204070231634  -0.003873306523097 1
force C   0.000447395332599   0.000249938829021   0.004845090834210 1
force C  -0.000547496487400   0.000204070231634  -0.003873306523154 1
force C   0.000447395332599   0.000249938829021   0.004845090834210 1
force C  -0.000547496487400   0.000204070231634  -0.003873306523154 1
force C   0.000447395332599   0.000249938829021   0.004845090834210 1
force C  -0.000547496487400   0.000204070231634  -0.003873306523154 1
force C   0.000447395332599   0.000249938829021   0.004845090834210 1
force C  -0.000547496487400   0.000204070231634  -0.003873306523154 1
force C   0.000447395332599   0.000249938829021   0.004845090834210 1
force C  -0.000547496487400   0.000204070231634  -0.003873306523154 1
force C   0.000447395332599   0.000249938829021   0.004845090834267 1
force C  -0.000547496487400   0.000204070231634  -0.003873306523041 1
force C   0.000447395332599   0.000249938829021   0.004845090834267 1
force C  -0.000547496487400   0.000204070231634  -0.003873306523154 1
force C   0.000447395332599   0.000249938829021   0.004845090834323 1
force C  -0.000547496487400   0.000204070231634  -0.003873306523041 1
force C   0.000447395332599   0.000249938829021   0.004845090834323 1
force C  -0.000547496487400   0.000204070231634  -0.003873306523041 1
force C   0.000447395332599   0.000249938829021   0.004845090834267 1
force C  -0.000547496487400   0.000204070231634  -0.003873306522984 1
force C   0.000447395332599   0.000249938829021   0.004845090834210 1
force C  -0.000547496487400   0.000204070231634  -0.003873306523041 1
force C   0.000447395332599   0.000249938829021   0.004845090834210 1
force C  -0.000547496487400   0.000204070231634  -0.003873306523041 1
force C   0.000447395332599   0.000249938829021   0.004845090834267 1
force C  -0.000547496487400   0.000204070231634  -0.003873306523097 1
force Ti  -0.002918974026881  -0.001845050978707  -0.000161765382401 1
force Ti   0.002177738438374  -0.001344778878467   0.037871986464112 1
force Ti  -0.005549342256833   0.000663743586456  -0.040144906201697 1
force Ti  -0.002918974026881  -0.001845050978707  -0.000161765382401 1
force Ti   0.002177738438374  -0.001344778878467   0.037871986464567 1
force Ti  -0.005549342256833   0.000663743586456  -0.040144906201697 1
force Ti  -0.002918974026881  -0.001845050978707  -0.000161765382401 1
force Ti   0.002177738438374  -0.001344778878467   0.037871986465022 1
force Ti  -0.005549342256833   0.000663743586456  -0.040144906202151 1
force Ti  -0.002918974026881  -0.001845050978707  -0.000161765382401 1
force Ti   0.002177738438374  -0.001344778878467   0.037871986465021 1
force Ti  -0.005549342256833   0.000663743586456  -0.040144906202151 1
force Ti  -0.002918974026881  -0.001845050978707  -0.000161765382401 1
force Ti   0.002177738438374  -0.001344778878467   0.037871986463658 1
force Ti  -0.005549342256833   0.000663743586456  -0.040144906202151 1
force Ti  -0.002918974026881  -0.001845050978707  -0.000161765382401 1
force Ti   0.002177738438374  -0.001344778878467   0.037871986464567 1
force Ti  -0.005549342256833   0.000663743586456  -0.040144906201697 1
force Ti  -0.002918974026881  -0.001845050978707  -0.000161765382401 1
force Ti   0.002177738438374  -0.001344778878467   0.037871986464567 1
force Ti  -0.005549342256833   0.000663743586456  -0.040144906201696 1
force Ti  -0.002918974026881  -0.001845050978707  -0.000161765382401 1
force Ti   0.002177738438374  -0.001344778878467   0.037871986464567 1
force Ti  -0.005549342256833   0.000663743586456  -0.040144906201696 1
force Ti  -0.002918974026881  -0.001845050978707  -0.000161765382401 1
force Ti   0.002177738438374  -0.001344778878467   0.037871986464112 1
force Ti  -0.005549342256833   0.000663743586456  -0.040144906203516 1
force Ti  -0.002918974026881  -0.001845050978707  -0.000161765382401 1
force Ti   0.002177738438374  -0.001344778878467   0.037871986464567 1
force Ti  -0.005549342256833   0.000663743586456  -0.040144906202606 1
force Ti  -0.002918974026881  -0.001845050978707  -0.000161765382401 1
force Ti   0.002177738438374  -0.001344778878467   0.037871986464567 1
force Ti  -0.005549342256833   0.000663743586456  -0.040144906203061 1
force Ti  -0.002918974026881  -0.001845050978707  -0.000161765382401 1
force Ti   0.002177738438374  -0.001344778878467   0.037871986464567 1
force Ti  -0.005549342256833   0.000663743586456  -0.040144906203515 1
force Ti  -0.002918974026881  -0.001845050978707  -0.000161765382401 1
force Ti   0.002177738438374  -0.001344778878467   0.037871986465477 1
force Ti  -0.005549342256833   0.000663743586456  -0.040144906202151 1
force Ti  -0.002918974026881  -0.001845050978707  -0.000161765382401 1
force Ti   0.002177738438374  -0.001344778878467   0.037871986465931 1
force Ti  -0.005549342256833   0.000663743586456  -0.040144906202151 1
force Ti  -0.002918974026881  -0.001845050978707  -0.000161765382401 1
force Ti   0.002177738438374  -0.001344778878467   0.037871986465931 1
force Ti  -0.005549342256833   0.000663743586456  -0.040144906201697 1
force Ti  -0.002918974026881  -0.001845050978707  -0.000161765382401 1
force Ti   0.002177738438374  -0.001344778878467   0.037871986465021 1
force Ti  -0.005549342256833   0.000663743586456  -0.040144906202606 1
force O  -0.002071069027922   0.000995082280145   0.000449312367437 1
force O   0.003646022422524  -0.000495360550953   0.001228893057942 1
force O  -0.002071069027922   0.000995082280145   0.000449312367440 1
force O   0.003646022422524  -0.000495360550953   0.001228893058400 1
force O  -0.002071069027922   0.000995082280145   0.000449312367440 1
force O   0.003646022422524  -0.000495360550953   0.001228893058396 1
force O  -0.002071069027922   0.000995082280145   0.000449312367437 1
force O   0.003646022422524  -0.000495360550953   0.001228893058393 1
force O  -0.002071069027922   0.000995082280145   0.000449312367891 1
force O   0.003646022422524  -0.000495360550953   0.001228893058396 1
force O  -0.002071069027922   0.000995082280145   0.000449312367891 1
force O   0.003646022422524  -0.000495360550953   0.001228893058393 1
force O  -0.002071069027922   0.000995082280145   0.000449312367440 1
force O   0.003646022422524  -0.000495360550953   0.001228893058396 1
force O  -0.002071069027922   0.000995082280145   0.000449312367891 1
force O   0.003646022422524  -0.000495360550953   0.001228893058393 1
force O  -0.002071069027922   0.000995082280145   0.000449312367895 1
force O   0.003646022422524  -0.000495360550953   0.001228893058393 1
force O  -0.002071069027922   0.000995082280145   0.000449312368350 1
force O   0.003646022422524  -0.000495360550953   0.001228893057942 1
force O  -0.002071069027922   0.000995082280145   0.000449312367895 1
force O   0.003646022422524  -0.000495360550953   0.001228893057942 1
force O  -0.002071069027922   0.000995082280145   0.000449312367440 1
force O   0.003646022422524  -0.000495360550953   0.001228893057938 1
force O  -0.002071069027922   0.000995082280145   0.000449312367898 1
force O   0.003646022422524  -0.000495360550953   0.001228893057942 1
force O  -0.002071069027922   0.000995082280145   0.000449312367437 1
force O   0.003646022422524  -0.000495360550953   0.001228893057487 1
force O  -0.002071069027922   0.000995082280145   0.000449312367440 1
force O   0.003646022422524  -0.000495360550953   0.001228893057942 1
force O  -0.002071069027922   0.000995082280145   0.000449312367891 1
force O   0.003646022422524  -0.000495360550953   0.001228893057942 1

# Energy components:
   A_diel =        0.0035633847612962
   Eewald =    48804.7448023516190005
       EH =    51714.5690600778689259
     Eloc =  -104778.0107075391570106
      Enl =      356.4160220655730882
      Exc =     -608.6166996388319603
 Exc_core =       66.0156199182785457
       KE =      943.6707040547746601
-------------------------------------
     Etot =    -3501.2076353251095497
       TS =        0.0424076322812795
-------------------------------------
        F =    -3501.2500429573906331

IonicMinimize: Iter:   0  F: -3501.250042957390633  |grad|_K:  3.040e-04  t[s]:   8212.72

#--- Lowdin population analysis ---
# oxidation-state C -1.124 -1.124 -1.124 -1.124 -1.124 -1.124 -1.124 -1.124 -1.124 -1.124 -1.124 -1.124 -1.124 -1.124 -1.124 -1.124 -1.124 -1.124 -1.124 -1.124 -1.124 -1.124 -1.124 -1.124 -1.124 -1.124 -1.124 -1.124 -1.124 -1.124 -1.124 -1.124
# oxidation-state Ti +1.183 +1.383 +1.383 +1.183 +1.383 +1.383 +1.183 +1.383 +1.383 +1.183 +1.383 +1.383 +1.183 +1.383 +1.383 +1.183 +1.383 +1.383 +1.183 +1.383 +1.383 +1.183 +1.383 +1.383 +1.183 +1.383 +1.383 +1.183 +1.383 +1.383 +1.183 +1.383 +1.383 +1.183 +1.383 +1.383 +1.183 +1.383 +1.383 +1.183 +1.383 +1.383 +1.183 +1.383 +1.383 +1.183 +1.383 +1.383
# oxidation-state O -0.719 -0.719 -0.719 -0.719 -0.719 -0.719 -0.719 -0.719 -0.719 -0.719 -0.719 -0.719 -0.719 -0.719 -0.719 -0.719 -0.719 -0.719 -0.719 -0.719 -0.719 -0.719 -0.719 -0.719 -0.719 -0.719 -0.719 -0.719 -0.719 -0.719 -0.719 -0.719

	Linear fluid (dielectric constant: 78.4, screening length: 5.74355 Bohr) occupying 0.726387 of unit cell:	Completed after 5 iterations at t[s]:   8252.01

-------- Electronic minimization -----------
	Linear fluid (dielectric constant: 78.4, screening length: 5.74355 Bohr) occupying 0.726387 of unit cell:	Completed after 0 iterations at t[s]:   8273.44
	FillingsUpdate:  mu: -0.217897940  nElectrons: 896.000000
ElecMinimize: Iter:   0  F: -3501.250062522160079  |grad|_K:  1.470e-07  alpha:  1.000e+00
	Linear fluid (dielectric constant: 78.4, screening length: 5.74355 Bohr) occupying 0.726386 of unit cell:	Completed after 3 iterations at t[s]:   8359.41
	Linear fluid (dielectric constant: 78.4, screening length: 5.74355 Bohr) occupying 0.726386 of unit cell:	Completed after 2 iterations at t[s]:   8392.44
	FillingsUpdate:  mu: -0.217881539  nElectrons: 896.000000
	SubspaceRotationAdjust: set factor to 0.186
ElecMinimize: Iter:   1  F: -3501.250066156288085  |grad|_K:  9.961e-08  alpha:  5.740e-01  linmin:  7.750e-05  t[s]:   8436.65
	Linear fluid (dielectric constant: 78.4, screening length: 5.74355 Bohr) occupying 0.726385 of unit cell:	Completed after 3 iterations at t[s]:   8472.76
	Linear fluid (dielectric constant: 78.4, screening length: 5.74355 Bohr) occupying 0.726385 of unit cell:	Completed after 0 iterations at t[s]:   8505.28
	FillingsUpdate:  mu: -0.217899195  nElectrons: 896.000000
	SubspaceRotationAdjust: set factor to 0.222
ElecMinimize: Iter:   2  F: -3501.250067820286404  |grad|_K:  8.575e-08  alpha:  5.765e-01  linmin: -3.475e-05  t[s]:   8548.70
	Linear fluid (dielectric constant: 78.4, screening length: 5.74355 Bohr) occupying 0.726383 of unit cell:	Completed after 0 iterations at t[s]:   8584.70
	Linear fluid (dielectric constant: 78.4, screening length: 5.74355 Bohr) occupying 0.726381 of unit cell:	Completed after 3 iterations at t[s]:   8616.93
	FillingsUpdate:  mu: -0.217948037  nElectrons: 896.000000
	SubspaceRotationAdjust: set factor to 0.265
ElecMinimize: Iter:   3  F: -3501.250070545251674  |grad|_K:  9.446e-08  alpha:  1.340e+00  linmin:  6.265e-05  t[s]:   8661.24
	Linear fluid (dielectric constant: 78.4, screening length: 5.74355 Bohr) occupying 0.726374 of unit cell:	Completed after 2 iterations at t[s]:   8697.34
	Linear fluid (dielectric constant: 78.4, screening length: 5.74355 Bohr) occupying 0.726378 of unit cell:	Completed after 2 iterations at t[s]:   8731.10
	FillingsUpdate:  mu: -0.217927378  nElectrons: 896.000000
	SubspaceRotationAdjust: set factor to 0.279
ElecMinimize: Iter:   4  F: -3501.250072099195222  |grad|_K:  7.238e-08  alpha:  6.313e-01  linmin:  4.314e-06  t[s]:   8775.48
	Linear fluid (dielectric constant: 78.4, screening length: 5.74355 Bohr) occupying 0.726376 of unit cell:	Completed after 2 iterations at t[s]:   8812.02
	Linear fluid (dielectric constant: 78.4, screening length: 5.74355 Bohr) occupying 0.726376 of unit cell:	Completed after 0 iterations at t[s]:   8844.46
	FillingsUpdate:  mu: -0.217928871  nElectrons: 896.000000
	SubspaceRotationAdjust: set factor to 0.307
ElecMinimize: Iter:   5  F: -3501.250072758736223  |grad|_K:  4.039e-08  alpha:  4.329e-01  linmin:  6.389e-06  t[s]:   8887.84
	Linear fluid (dielectric constant: 78.4, screening length: 5.74355 Bohr) occupying 0.726376 of unit cell:	Completed after 0 iterations at t[s]:   8923.95
	Linear fluid (dielectric constant: 78.4, screening length: 5.74355 Bohr) occupying 0.726376 of unit cell:	Completed after 0 iterations at t[s]:   8956.13
	FillingsUpdate:  mu: -0.217927566  nElectrons: 896.000000
	SubspaceRotationAdjust: set factor to 0.369
ElecMinimize: Iter:   6  F: -3501.250073044413966  |grad|_K:  2.361e-08  alpha:  6.343e-01  linmin:  1.706e-06  t[s]:   8999.96
	Linear fluid (dielectric constant: 78.4, screening length: 5.74355 Bohr) occupying 0.726377 of unit cell:	Completed after 2 iterations at t[s]:   9036.46
	Linear fluid (dielectric constant: 78.4, screening length: 5.74355 Bohr) occupying 0.726377 of unit cell:	Completed after 0 iterations at t[s]:   9068.49
	FillingsUpdate:  mu: -0.217933670  nElectrons: 896.000000
	SubspaceRotationAdjust: set factor to 0.345
ElecMinimize: Iter:   7  F: -3501.250073074268130  |grad|_K:  2.343e-08  alpha:  3.534e-01  linmin: -7.810e-06  t[s]:   9112.23
	Linear fluid (dielectric constant: 78.4, screening length: 5.74355 Bohr) occupying 0.726377 of unit cell:	Completed after 0 iterations at t[s]:   9147.78
	Linear fluid (dielectric constant: 78.4, screening length: 5.74355 Bohr) occupying 0.726377 of unit cell:	Completed after 0 iterations at t[s]:   9180.02
	FillingsUpdate:  mu: -0.217933524  nElectrons: 896.000000
	SubspaceRotationAdjust: set factor to 0.459
ElecMinimize: Iter:   8  F: -3501.250073142527981  |grad|_K:  1.963e-08  alpha:  3.796e-01  linmin: -6.038e-09  t[s]:   9223.57
	Linear fluid (dielectric constant: 78.4, screening length: 5.74355 Bohr) occupying 0.726377 of unit cell:	Completed after 2 iterations at t[s]:   9260.04
	Linear fluid (dielectric constant: 78.4, screening length: 5.74355 Bohr) occupying 0.726377 of unit cell:	Completed after 0 iterations at t[s]:   9292.33
ElecMinimize: 	Step increased F by 3.080459e-09, reducing alpha to 1.011741e-02.
	Linear fluid (dielectric constant: 78.4, screening length: 5.74355 Bohr) occupying 0.726377 of unit cell:	Completed after 0 iterations at t[s]:   9362.77
	FillingsUpdate:  mu: -0.217917003  nElectrons: 896.000000
	SubspaceRotationAdjust: set factor to 0.403
ElecMinimize: Iter:   9  F: -3501.250073142880865  |grad|_K:  2.366e-08  alpha:  1.012e-02  linmin:  1.224e-05  t[s]:   9406.24
	Linear fluid (dielectric constant: 78.4, screening length: 5.74355 Bohr) occupying 0.726377 of unit cell:	Completed after 0 iterations at t[s]:   9442.33
ElecMinimize: 	Predicted alpha/alphaT>3.000000, increasing alphaT to 3.035222e-02.
	Linear fluid (dielectric constant: 78.4, screening length: 5.74355 Bohr) occupying 0.726377 of unit cell:	Completed after 0 iterations at t[s]:   9473.89
ElecMinimize: 	Predicted alpha/alphaT>3.000000, increasing alphaT to 9.105666e-02.
	Linear fluid (dielectric constant: 78.4, screening length: 5.74355 Bohr) occupying 0.726377 of unit cell:	Completed after 0 iterations at t[s]:   9505.22
	Linear fluid (dielectric constant: 78.4, screening length: 5.74355 Bohr) occupying 0.726377 of unit cell:	Completed after 0 iterations at t[s]:   9537.05
	FillingsUpdate:  mu: -0.217916976  nElectrons: 896.000000
	SubspaceRotationAdjust: set factor to 0.472
ElecMinimize: Iter:  10  F: -3501.250073151370998  |grad|_K:  2.099e-08  alpha:  9.723e-02  linmin:  3.373e-08  t[s]:   9580.95
ElecMinimize: Converged (|Delta F|<1.000000e-08 for 2 iters).
Setting wave functions to eigenvectors of Hamiltonian

# Ionic positions in lattice coordinates:
ion C   0.167423577253769   0.083912680069156   0.557182788538329 1
ion C   0.084170907942924   0.167281277664699   0.442827755514721 1
ion C   0.417423577253769   0.083912680069156   0.557182788538329 1
ion C   0.334170907942924   0.167281277664699   0.442827755514721 1
ion C   0.667423577253769   0.083912680069156   0.557182788538329 1
ion C   0.584170907942924   0.167281277664699   0.442827755514721 1
ion C   0.917423577253769   0.083912680069156   0.557182788538329 1
ion C   0.834170907942924   0.167281277664699   0.442827755514721 1
ion C   0.167423577253769   0.333912680069156   0.557182788538329 1
ion C   0.084170907942924   0.417281277664699   0.442827755514721 1
ion C   0.417423577253769   0.333912680069156   0.557182788538329 1
ion C   0.334170907942924   0.417281277664699   0.442827755514721 1
ion C   0.667423577253769   0.333912680069156   0.557182788538329 1
ion C   0.584170907942924   0.417281277664699   0.442827755514721 1
ion C   0.917423577253769   0.333912680069156   0.557182788538329 1
ion C   0.834170907942924   0.417281277664699   0.442827755514721 1
ion C   0.167423577253769   0.583912680069156   0.557182788538329 1
ion C   0.084170907942924   0.667281277664699   0.442827755514721 1
ion C   0.417423577253769   0.583912680069156   0.557182788538329 1
ion C   0.334170907942924   0.667281277664699   0.442827755514721 1
ion C   0.667423577253769   0.583912680069156   0.557182788538329 1
ion C   0.584170907942924   0.667281277664699   0.442827755514721 1
ion C   0.917423577253769   0.583912680069156   0.557182788538329 1
ion C   0.834170907942924   0.667281277664699   0.442827755514721 1
ion C   0.167423577253769   0.833912680069156   0.557182788538329 1
ion C   0.084170907942924   0.917281277664699   0.442827755514721 1
ion C   0.417423577253769   0.833912680069156   0.557182788538329 1
ion C   0.334170907942924   0.917281277664699   0.442827755514721 1
ion C   0.667423577253769   0.833912680069156   0.557182788538329 1
ion C   0.584170907942924   0.917281277664699   0.442827755514721 1
ion C   0.917423577253769   0.833912680069156   0.557182788538329 1
ion C   0.834170907942924   0.917281277664699   0.442827755514721 1
ion Ti   0.000802148749363   0.000612923666386   0.500009905527496 1
ion Ti   0.083965962392118   0.167190802015925   0.616931873381895 1
ion Ti   0.167618597100852   0.083986001528248   0.383076748960886 1
ion Ti   0.250802148749363   0.000612923666386   0.500009905527496 1
ion Ti   0.333965962392118   0.167190802015925   0.616931873381895 1
ion Ti   0.417618597100852   0.083986001528248   0.383076748960886 1
ion Ti   0.500802148749363   0.000612923666386   0.500009905527496 1
ion Ti   0.583965962392118   0.167190802015925   0.616931873381895 1
ion Ti   0.667618597100852   0.083986001528248   0.383076748960886 1
ion Ti   0.750802148749363   0.000612923666386   0.500009905527496 1
ion Ti   0.833965962392118   0.167190802015925   0.616931873381895 1
ion Ti   0.917618597100852   0.083986001528248   0.383076748960886 1
ion Ti   0.000802148749363   0.250612923666386   0.500009905527496 1
ion Ti   0.083965962392118   0.417190802015925   0.616931873381895 1
ion Ti   0.167618597100852   0.333986001528248   0.383076748960886 1
ion Ti   0.250802148749363   0.250612923666386   0.500009905527496 1
ion Ti   0.333965962392118   0.417190802015925   0.616931873381895 1
ion Ti   0.417618597100852   0.333986001528248   0.383076748960886 1
ion Ti   0.500802148749363   0.250612923666386   0.500009905527496 1
ion Ti   0.583965962392118   0.417190802015925   0.616931873381895 1
ion Ti   0.667618597100852   0.333986001528248   0.383076748960886 1
ion Ti   0.750802148749363   0.250612923666386   0.500009905527496 1
ion Ti   0.833965962392118   0.417190802015925   0.616931873381895 1
ion Ti   0.917618597100852   0.333986001528248   0.383076748960886 1
ion Ti   0.000802148749363   0.500612923666386   0.500009905527496 1
ion Ti   0.083965962392118   0.667190802015925   0.616931873381895 1
ion Ti   0.167618597100852   0.583986001528248   0.383076748960886 1
ion Ti   0.250802148749363   0.500612923666386   0.500009905527496 1
ion Ti   0.333965962392118   0.667190802015925   0.616931873381895 1
ion Ti   0.417618597100852   0.583986001528248   0.383076748960886 1
ion Ti   0.500802148749363   0.500612923666386   0.500009905527496 1
ion Ti   0.583965962392118   0.667190802015925   0.616931873381895 1
ion Ti   0.667618597100852   0.583986001528248   0.383076748960886 1
ion Ti   0.750802148749363   0.500612923666386   0.500009905527496 1
ion Ti   0.833965962392118   0.667190802015925   0.616931873381895 1
ion Ti   0.917618597100852   0.583986001528248   0.383076748960886 1
[...]
	SubspaceRotationAdjust: set factor to 0.0842
ElecMinimize: Iter:  11  F: -3501.250224161523874  |grad|_K:  8.468e-09  alpha:  4.190e-01  linmin: -1.583e-04  t[s]:  14783.72
	Linear fluid (dielectric constant: 78.4, screening length: 5.74355 Bohr) occupying 0.726202 of unit cell:	Completed after 0 iterations at t[s]:  14820.01
	Linear fluid (dielectric constant: 78.4, screening length: 5.74355 Bohr) occupying 0.726202 of unit cell:	Completed after 0 iterations at t[s]:  14851.86
	FillingsUpdate:  mu: -0.217754120  nElectrons: 896.000000
	SubspaceRotationAdjust: set factor to 0.0623
	SubspaceRotationAdjust: resetting CG because factor has changed by 0.11924
	Linear fluid (dielectric constant: 78.4, screening length: 5.74355 Bohr) occupying 0.726202 of unit cell:	Completed after 0 iterations at t[s]:  14911.09
ElecMinimize: 	State modified externally: resetting search direction.
ElecMinimize: Iter:  12  F: -3501.250224163729399  |grad|_K:  5.433e-09  alpha:  2.938e-01
	Linear fluid (dielectric constant: 78.4, screening length: 5.74355 Bohr) occupying 0.726202 of unit cell:	Completed after 0 iterations at t[s]:  14990.69
ElecMinimize: 	Predicted alpha/alphaT>3.000000, increasing alphaT to 8.812777e-01.
	Linear fluid (dielectric constant: 78.4, screening length: 5.74355 Bohr) occupying 0.726202 of unit cell:	Completed after 0 iterations at t[s]:  15022.45
	Linear fluid (dielectric constant: 78.4, screening length: 5.74355 Bohr) occupying 0.726202 of unit cell:	Completed after 1 iterations at t[s]:  15054.74
ElecMinimize: 	Step increased F by 6.027267e-08, reducing alpha to 1.427554e-01.
	Linear fluid (dielectric constant: 78.4, screening length: 5.74355 Bohr) occupying 0.726202 of unit cell:	Completed after 0 iterations at t[s]:  15125.56
ElecMinimize: 	Step increased F by 3.119612e-08, reducing alpha to 1.427554e-02.
	Linear fluid (dielectric constant: 78.4, screening length: 5.74355 Bohr) occupying 0.726202 of unit cell:	Completed after 0 iterations at t[s]:  15196.41
ElecMinimize: 	Step increased F by 2.948627e-08, reducing alpha to 1.427554e-03.
ElecMinimize: 	Step failed to reduce F after 3 attempts. Quitting step.
ElecMinimize: 	Undoing step.
	Linear fluid (dielectric constant: 78.4, screening length: 5.74355 Bohr) occupying 0.726202 of unit cell:	Completed after 0 iterations at t[s]:  15266.66
ElecMinimize: 	Step failed along negative gradient direction.
ElecMinimize: Probably at roundoff error limit. (Stopping)
Setting wave functions to eigenvectors of Hamiltonian

# Ionic positions in lattice coordinates:
ion C   0.167454248459894   0.083932301100728   0.557295694344403 1
ion C   0.084168255733299   0.167283603018563   0.442712607455854 1
ion C   0.417454248459894   0.083932301100728   0.557295694344403 1
ion C   0.334168255733299   0.167283603018563   0.442712607455854 1
ion C   0.667454248459894   0.083932301100728   0.557295694344403 1
ion C   0.584168255733299   0.167283603018563   0.442712607455854 1
ion C   0.917454248459894   0.083932301100728   0.557295694344403 1
ion C   0.834168255733299   0.167283603018563   0.442712607455854 1
ion C   0.167454248459894   0.333932301100728   0.557295694344403 1
ion C   0.084168255733299   0.417283603018563   0.442712607455854 1
ion C   0.417454248459894   0.333932301100728   0.557295694344403 1
ion C   0.334168255733299   0.417283603018563   0.442712607455854 1
ion C   0.667454248459894   0.333932301100728   0.557295694344403 1
ion C   0.584168255733299   0.417283603018563   0.442712607455854 1
ion C   0.917454248459894   0.333932301100728   0.557295694344403 1
ion C   0.834168255733299   0.417283603018563   0.442712607455854 1
ion C   0.167454248459894   0.583932301100728   0.557295694344403 1
ion C   0.084168255733299   0.667283603018563   0.442712607455854 1
ion C   0.417454248459894   0.583932301100728   0.557295694344403 1
ion C   0.334168255733299   0.667283603018563   0.442712607455854 1
ion C   0.667454248459894   0.583932301100728   0.557295694344403 1
ion C   0.584168255733299   0.667283603018563   0.442712607455854 1
ion C   0.917454248459894   0.583932301100728   0.557295694344403 1
ion C   0.834168255733299   0.667283603018563   0.442712607455854 1
ion C   0.167454248459894   0.833932301100728   0.557295694344403 1
ion C   0.084168255733299   0.917283603018563   0.442712607455854 1
ion C   0.417454248459894   0.833932301100728   0.557295694344403 1
ion C   0.334168255733299   0.917283603018563   0.442712607455854 1
ion C   0.667454248459894   0.833932301100728   0.557295694344403 1
ion C   0.584168255733299   0.917283603018563   0.442712607455854 1
ion C   0.917454248459894   0.833932301100728   0.557295694344403 1
ion C   0.834168255733299   0.917283603018563   0.442712607455854 1
ion Ti   0.000707133590249   0.000528530881105   0.500005673079691 1
ion Ti   0.084056284511458   0.167207045170162   0.617113083023031 1
ion Ti   0.167466284317293   0.083935586185678   0.382892326537440 1
ion Ti   0.250707133590249   0.000528530881105   0.500005673079691 1
ion Ti   0.334056284511458   0.167207045170162   0.617113083023031 1
ion Ti   0.417466284317293   0.083935586185678   0.382892326537440 1
ion Ti   0.500707133590249   0.000528530881105   0.500005673079691 1
ion Ti   0.584056284511458   0.167207045170162   0.617113083023031 1
ion Ti   0.667466284317293   0.083935586185678   0.382892326537440 1
ion Ti   0.750707133590249   0.000528530881105   0.500005673079691 1
ion Ti   0.834056284511458   0.167207045170162   0.617113083023031 1
ion Ti   0.917466284317293   0.083935586185678   0.382892326537440 1
ion Ti   0.000707133590249   0.250528530881105   0.500005673079691 1
ion Ti   0.084056284511458   0.417207045170162   0.617113083023031 1
ion Ti   0.167466284317293   0.333935586185677   0.382892326537440 1
ion Ti   0.250707133590249   0.250528530881105   0.500005673079691 1
ion Ti   0.334056284511458   0.417207045170162   0.617113083023031 1
ion Ti   0.417466284317293   0.333935586185677   0.382892326537440 1
ion Ti   0.500707133590249   0.250528530881105   0.500005673079691 1
ion Ti   0.584056284511458   0.417207045170162   0.617113083023031 1
ion Ti   0.667466284317293   0.333935586185677   0.382892326537440 1
ion Ti   0.750707133590249   0.250528530881105   0.500005673079691 1
ion Ti   0.834056284511458   0.417207045170162   0.617113083023031 1
ion Ti   0.917466284317293   0.333935586185677   0.382892326537440 1
ion Ti   0.000707133590249   0.500528530881105   0.500005673079691 1
ion Ti   0.084056284511458   0.667207045170162   0.617113083023031 1
ion Ti   0.167466284317293   0.583935586185678   0.382892326537440 1
ion Ti   0.250707133590249   0.500528530881105   0.500005673079691 1
ion Ti   0.334056284511458   0.667207045170162   0.617113083023031 1
ion Ti   0.417466284317293   0.583935586185678   0.382892326537440 1
ion Ti   0.500707133590249   0.500528530881105   0.500005673079691 1
ion Ti   0.584056284511458   0.667207045170162   0.617113083023031 1
ion Ti   0.667466284317293   0.583935586185678   0.382892326537440 1
ion Ti   0.750707133590249   0.500528530881105   0.500005673079691 1
ion Ti   0.834056284511458   0.667207045170162   0.617113083023031 1
ion Ti   0.917466284317293   0.583935586185678   0.382892326537440 1
ion Ti   0.000707133590249   0.750528530881105   0.500005673079691 1
ion Ti   0.084056284511458   0.917207045170162   0.617113083023031 1
ion Ti   0.167466284317293   0.833935586185678   0.382892326537440 1
ion Ti   0.250707133590249   0.750528530881105   0.500005673079691 1
ion Ti   0.334056284511458   0.917207045170162   0.617113083023031 1
ion Ti   0.417466284317293   0.833935586185678   0.382892326537440 1
ion Ti   0.500707133590249   0.750528530881105   0.500005673079691 1
ion Ti   0.584056284511458   0.917207045170162   0.617113083023031 1
ion Ti   0.667466284317293   0.833935586185678   0.382892326537440 1
ion Ti   0.750707133590249   0.750528530881105   0.500005673079691 1
ion Ti   0.834056284511458   0.917207045170162   0.617113083023031 1
ion Ti   0.917466284317293   0.833935586185678   0.382892326537440 1
ion O   0.000765137994074   0.000604888857194   0.659136780199781 1
ion O   0.000942736956232   0.000667975036571   0.340873800359799 1
ion O   0.250765137994074   0.000604888857194   0.659136780199781 1
ion O   0.250942736956232   0.000667975036571   0.340873800359799 1
ion O   0.500765137994074   0.000604888857194   0.659136780199781 1
ion O   0.500942736956232   0.000667975036571   0.340873800359799 1
ion O   0.750765137994074   0.000604888857194   0.659136780199781 1
ion O   0.750942736956232   0.000667975036571   0.340873800359799 1
ion O   0.000765137994074   0.250604888857194   0.659136780199781 1
ion O   0.000942736956232   0.250667975036571   0.340873800359799 1
ion O   0.250765137994074   0.250604888857194   0.659136780199781 1
ion O   0.250942736956232   0.250667975036571   0.340873800359799 1
ion O   0.500765137994074   0.250604888857194   0.659136780199781 1
ion O   0.500942736956232   0.250667975036571   0.340873800359799 1
ion O   0.750765137994074   0.250604888857194   0.659136780199781 1
ion O   0.750942736956232   0.250667975036571   0.340873800359799 1
ion O   0.000765137994074   0.500604888857194   0.659136780199781 1
ion O   0.000942736956232   0.500667975036570   0.340873800359799 1
ion O   0.250765137994074   0.500604888857194   0.659136780199781 1
ion O   0.250942736956232   0.500667975036570   0.340873800359799 1
ion O   0.500765137994074   0.500604888857194   0.659136780199781 1
ion O   0.500942736956232   0.500667975036570   0.340873800359799 1
ion O   0.750765137994074   0.500604888857194   0.659136780199781 1
ion O   0.750942736956232   0.500667975036570   0.340873800359799 1
ion O   0.000765137994074   0.750604888857194   0.659136780199781 1
ion O   0.000942736956232   0.750667975036570   0.340873800359799 1
ion O   0.250765137994074   0.750604888857194   0.659136780199781 1
ion O   0.250942736956232   0.750667975036570   0.340873800359799 1
ion O   0.500765137994074   0.750604888857194   0.659136780199781 1
ion O   0.500942736956232   0.750667975036570   0.340873800359799 1
ion O   0.750765137994074   0.750604888857194   0.659136780199781 1
ion O   0.750942736956232   0.750667975036570   0.340873800359799 1


# Forces in Lattice coordinates:
force C  -0.001179081006781  -0.000572593604710  -0.004323117368495 1
force C  -0.000910083764760  -0.000475335491225   0.004412987777906 1
force C  -0.001179081006781  -0.000572593604710  -0.004323117368552 1
force C  -0.000910083764760  -0.000475335491225   0.004412987777906 1
force C  -0.001179081006781  -0.000572593604710  -0.004323117368495 1
force C  -0.000910083764760  -0.000475335491225   0.004412987777906 1
force C  -0.001179081006781  -0.000572593604710  -0.004323117368608 1
force C  -0.000910083764760  -0.000475335491225   0.004412987777906 1
force C  -0.001179081006781  -0.000572593604710  -0.004323117368608 1
force C  -0.000910083764760  -0.000475335491225   0.004412987777849 1
force C  -0.001179081006781  -0.000572593604710  -0.004323117368608 1
force C  -0.000910083764760  -0.000475335491225   0.004412987777736 1
force C  -0.001179081006781  -0.000572593604710  -0.004323117368608 1
force C  -0.000910083764760  -0.000475335491225   0.004412987777736 1
force C  -0.001179081006781  -0.000572593604710  -0.004323117368608 1
force C  -0.000910083764760  -0.000475335491225   0.004412987777849 1
force C  -0.001179081006781  -0.000572593604710  -0.004323117368665 1
force C  -0.000910083764760  -0.000475335491225   0.004412987777963 1
force C  -0.001179081006781  -0.000572593604710  -0.004323117368608 1
force C  -0.000910083764760  -0.000475335491225   0.004412987777963 1
force C  -0.001179081006781  -0.000572593604710  -0.004323117368608 1
force C  -0.000910083764760  -0.000475335491225   0.004412987777963 1
force C  -0.001179081006781  -0.000572593604710  -0.004323117368722 1
force C  -0.000910083764760  -0.000475335491225   0.004412987777963 1
force C  -0.001179081006781  -0.000572593604710  -0.004323117368552 1
force C  -0.000910083764760  -0.000475335491225   0.004412987778020 1
force C  -0.001179081006781  -0.000572593604710  -0.004323117368608 1
force C  -0.000910083764760  -0.000475335491225   0.004412987778020 1
force C  -0.001179081006781  -0.000572593604710  -0.004323117368608 1
force C  -0.000910083764760  -0.000475335491225   0.004412987778020 1
force C  -0.001179081006781  -0.000572593604710  -0.004323117368608 1
force C  -0.000910083764760  -0.000475335491225   0.004412987777963 1
force Ti   0.000134154905306   0.000371917878992  -0.000130952663049 1
force Ti  -0.001217856686026   0.000286256810734  -0.000265725647787 1
force Ti   0.001075902447205  -0.000394221101702   0.001096203623801 1
force Ti   0.000134154905306   0.000371917878992  -0.000130952663049 1
force Ti  -0.001217856686026   0.000286256810734  -0.000265725647332 1
force Ti   0.001075902447205  -0.000394221101702   0.001096203623347 1
force Ti   0.000134154905306   0.000371917878992  -0.000130952663049 1
force Ti  -0.001217856686026   0.000286256810734  -0.000265725647332 1
force Ti   0.001075902447205  -0.000394221101702   0.001096203623347 1
force Ti   0.000134154905306   0.000371917878992  -0.000130952663049 1
force Ti  -0.001217856686026   0.000286256810734  -0.000265725647332 1
force Ti   0.001075902447205  -0.000394221101702   0.001096203623347 1
force Ti   0.000134154905306   0.000371917878992  -0.000130952663049 1
force Ti  -0.001217856686026   0.000286256810734  -0.000265725647786 1
force Ti   0.001075902447205  -0.000394221101702   0.001096203623801 1
force Ti   0.000134154905306   0.000371917878992  -0.000130952663049 1
force Ti  -0.001217856686026   0.000286256810734  -0.000265725647332 1
force Ti   0.001075902447205  -0.000394221101702   0.001096203623346 1
force Ti   0.000134154905306   0.000371917878992  -0.000130952663049 1
force Ti  -0.001217856686026   0.000286256810734  -0.000265725646877 1
force Ti   0.001075902447205  -0.000394221101702   0.001096203623346 1
force Ti   0.000134154905306   0.000371917878992  -0.000130952663049 1
force Ti  -0.001217856686026   0.000286256810734  -0.000265725647332 1
force Ti   0.001075902447205  -0.000394221101702   0.001096203623801 1
force Ti   0.000134154905306   0.000371917878992  -0.000130952663049 1
force Ti  -0.001217856686026   0.000286256810734  -0.000265725646422 1
force Ti   0.001075902447205  -0.000394221101702   0.001096203623801 1
force Ti   0.000134154905306   0.000371917878992  -0.000130952663049 1
force Ti  -0.001217856686026   0.000286256810734  -0.000265725646877 1
force Ti   0.001075902447205  -0.000394221101702   0.001096203623801 1
force Ti   0.000134154905306   0.000371917878992  -0.000130952663049 1
force Ti  -0.001217856686026   0.000286256810734  -0.000265725646877 1
force Ti   0.001075902447205  -0.000394221101702   0.001096203623801 1
force Ti   0.000134154905306   0.000371917878992  -0.000130952663049 1
force Ti  -0.001217856686026   0.000286256810734  -0.000265725646423 1
force Ti   0.001075902447205  -0.000394221101702   0.001096203623801 1
force Ti   0.000134154905306   0.000371917878992  -0.000130952663049 1
force Ti  -0.001217856686026   0.000286256810734  -0.000265725645968 1
force Ti   0.001075902447205  -0.000394221101702   0.001096203623347 1
force Ti   0.000134154905306   0.000371917878992  -0.000130952663049 1
force Ti  -0.001217856686026   0.000286256810734  -0.000265725645968 1
force Ti   0.001075902447205  -0.000394221101702   0.001096203622892 1
force Ti   0.000134154905306   0.000371917878992  -0.000130952663049 1
force Ti  -0.001217856686026   0.000286256810734  -0.000265725645513 1
force Ti   0.001075902447205  -0.000394221101702   0.001096203622892 1
force Ti   0.000134154905306   0.000371917878992  -0.000130952663049 1
force Ti  -0.001217856686026   0.000286256810734  -0.000265725645513 1
force Ti   0.001075902447205  -0.000394221101702   0.001096203623347 1
force O   0.000813995870275  -0.000850601424939   0.006208398952001 1
force O  -0.003208828657133   0.000202056848699  -0.007603941924476 1
force O   0.000813995870275  -0.000850601424939   0.006208398952001 1
force O  -0.003208828657133   0.000202056848699  -0.007603941924476 1
force O   0.000813995870275  -0.000850601424939   0.006208398951543 1
force O  -0.003208828657133   0.000202056848699  -0.007603941924476 1
force O   0.000813995870275  -0.000850601424939   0.006208398951543 1
force O  -0.003208828657133   0.000202056848699  -0.007603941924025 1
force O   0.000813995870275  -0.000850601424939   0.006208398951546 1
force O  -0.003208828657133   0.000202056848699  -0.007603941923566 1
force O   0.000813995870275  -0.000850601424939   0.006208398951998 1
force O  -0.003208828657133   0.000202056848699  -0.007603941924017 1
force O   0.000813995870275  -0.000850601424939   0.006208398952001 1
force O  -0.003208828657133   0.000202056848699  -0.007603941924021 1
force O   0.000813995870275  -0.000850601424939   0.006208398951546 1
force O  -0.003208828657133   0.000202056848699  -0.007603941924021 1
force O   0.000813995870275  -0.000850601424939   0.006208398951546 1
force O  -0.003208828657133   0.000202056848699  -0.007603941923566 1
force O   0.000813995870275  -0.000850601424939   0.006208398951092 1
force O  -0.003208828657133   0.000202056848699  -0.007603941924021 1
force O   0.000813995870275  -0.000850601424939   0.006208398951543 1
force O  -0.003208828657133   0.000202056848699  -0.007603941923570 1
force O   0.000813995870275  -0.000850601424939   0.006208398951092 1
force O  -0.003208828657133   0.000202056848699  -0.007603941924025 1
force O   0.000813995870275  -0.000850601424939   0.006208398951543 1
force O  -0.003208828657133   0.000202056848699  -0.007603941924021 1
force O   0.000813995870275  -0.000850601424939   0.006208398951546 1
force O  -0.003208828657133   0.000202056848699  -0.007603941924479 1
force O   0.000813995870275  -0.000850601424939   0.006208398951543 1
force O  -0.003208828657133   0.000202056848699  -0.007603941924021 1
force O   0.000813995870275  -0.000850601424939   0.006208398951543 1
force O  -0.003208828657133   0.000202056848699  -0.007603941923570 1

# Energy components:
   A_diel =        0.0035622850849410
   Eewald =    48771.7474531687912531
       EH =    51681.7241981174447574
     Eloc =  -104712.0889718992839335
      Enl =      356.4060990966654572
      Exc =     -608.5772626474846447
 Exc_core =       66.0158453988322691
       KE =      943.5612037289589580
-------------------------------------
     Etot =    -3501.2078727509911005
       TS =        0.0423513833215685
-------------------------------------
        F =    -3501.2502241343127025

IonicMinimize: Iter:   4  F: -3501.250224134312703  |grad|_K:  7.266e-05  alpha:  1.000e+00  linmin: -4.643e-01  t[s]:  15339.50
IonicMinimize: Converged (|grad|_K<1.000000e-04).

#--- Lowdin population analysis ---
# oxidation-state C -1.124 -1.124 -1.124 -1.124 -1.124 -1.124 -1.124 -1.124 -1.124 -1.124 -1.124 -1.124 -1.124 -1.124 -1.124 -1.124 -1.124 -1.124 -1.124 -1.124 -1.124 -1.124 -1.124 -1.124 -1.124 -1.124 -1.124 -1.124 -1.124 -1.124 -1.124 -1.124
# oxidation-state Ti +1.184 +1.383 +1.383 +1.184 +1.383 +1.383 +1.184 +1.383 +1.383 +1.184 +1.383 +1.383 +1.184 +1.383 +1.383 +1.184 +1.383 +1.383 +1.184 +1.383 +1.383 +1.184 +1.383 +1.383 +1.184 +1.383 +1.383 +1.184 +1.383 +1.383 +1.184 +1.383 +1.383 +1.184 +1.383 +1.383 +1.184 +1.383 +1.383 +1.184 +1.383 +1.383 +1.184 +1.383 +1.383 +1.184 +1.383 +1.383
# oxidation-state O -0.719 -0.719 -0.719 -0.719 -0.719 -0.719 -0.719 -0.719 -0.719 -0.719 -0.719 -0.719 -0.719 -0.719 -0.719 -0.719 -0.719 -0.719 -0.719 -0.719 -0.719 -0.719 -0.719 -0.719 -0.719 -0.719 -0.719 -0.719 -0.719 -0.719 -0.719 -0.719


Dumping 'NbTe2.fillings' ... done
Dumping 'NbTe2.wfns' ... done
Dumping 'NbTe2.fluidState' ... done
Dumping 'NbTe2.ionpos' ... done
Dumping 'NbTe2.eigenvals' ... done
End date and time: Thu Mar 25 09:30:31 2021  (Duration: 0-4:15:55.84)
Done!
