
*************** JDFTx 1.5.0  ***************

Start date and time: Mon Jan 25 23:19:49 2021
Executable jdftx_gpu with command-line: -i Charged.in -o Charged.out
Running on hosts (process indices):  amax (0-6)
Divided in process groups (process indices):  0 (0)  1 (1)  2 (2)  3 (3)  4 (4)  5 (5)  6 (6)
gpuInit: Found compatible cuda device 0 'Tesla K80'
gpuInit: Found compatible cuda device 1 'Tesla K80'
gpuInit: Found compatible cuda device 2 'Tesla K80'
gpuInit: Found compatible cuda device 3 'Tesla K80'
gpuInit: Found compatible cuda device 4 'Tesla K80'
gpuInit: Found compatible cuda device 5 'Tesla K80'
gpuInit: Found compatible cuda device 6 'Tesla K80'
gpuInit: Selected device 0
Resource initialization completed at t[s]:      3.53
Run totals: 7 processes, 24 threads, 7 GPUs


Input parsed successfully to the following command list (including defaults):

basis kpoint-dependent
cache-projectors no
coords-type Lattice
core-overlap-check none
coulomb-interaction Slab 001
coulomb-truncation-embed 0.5 0.5 0.5
davidson-band-ratio 1.1
dump End State
dump-name NbTe2.$VAR
elec-cutoff 20
elec-eigen-algo Davidson
elec-ex-corr gga-PBE
elec-initial-charge 2.000000
elec-initial-magnetization 5.000000 no
elec-smearing Gauss 0.0073499
electronic-minimize  \
	dirUpdateScheme      FletcherReeves \
	linminMethod         DirUpdateRecommended \
	nIterations          200 \
	history              15 \
	knormThreshold       0 \
	energyDiffThreshold  1e-08 \
	nEnergyDiff          2 \
	alphaTstart          1 \
	alphaTmin            1e-10 \
	updateTestStepSize   yes \
	alphaTreduceFactor   0.1 \
	alphaTincreaseFactor 3 \
	nAlphaAdjustMax      3 \
	wolfeEnergy          0.0001 \
	wolfeGradient        0.9 \
	fdTest               no
exchange-regularization WignerSeitzTruncated
fluid LinearPCM 298.000000 1.013250
fluid-anion F- 1 MeanFieldLJ \
	epsBulk 1 \
	pMol 0 \
	epsInf 1 \
	Pvap 0 \
	sigmaBulk 0 \
	Rvdw 2.24877 \
	Res 0 \
	tauNuc 343133
fluid-cation Na+ 1 MeanFieldLJ \
	epsBulk 1 \
	pMol 0 \
	epsInf 1 \
	Pvap 0 \
	sigmaBulk 0 \
	Rvdw 2.19208 \
	Res 0 \
	tauNuc 343133
fluid-ex-corr lda-TF lda-PZ
fluid-gummel-loop 10 1.000000e-05
fluid-minimize  \
	dirUpdateScheme      PolakRibiere \
	linminMethod         DirUpdateRecommended \
	nIterations          400 \
	history              15 \
	knormThreshold       1e-11 \
	energyDiffThreshold  0 \
	nEnergyDiff          2 \
	alphaTstart          1 \
	alphaTmin            1e-10 \
	updateTestStepSize   yes \
	alphaTreduceFactor   0.1 \
	alphaTincreaseFactor 3 \
	nAlphaAdjustMax      6 \
	wolfeEnergy          0.0001 \
	wolfeGradient        0.9 \
	fdTest               no
fluid-solvent H2O 55.338 ScalarEOS \
	epsBulk 78.4 \
	pMol 0.92466 \
	epsInf 1.77 \
	Pvap 1.06736e-10 \
	sigmaBulk 4.62e-05 \
	Rvdw 2.61727 \
	Res 1.42 \
	tauNuc 343133 \
	poleEl 15 7 1
forces-output-coords Positions
initial-state NbTe2.$VAR
ion B   0.166670001000000   0.083329999999997   0.500000000000000 1
ion B   0.416670013000001   0.083329999999997   0.500000000000000 1
ion B   0.666670035999999   0.083329999999997   0.500000000000000 1
ion B   0.916669964999997   0.083329999999997   0.500000000000000 1
ion B   0.166669992999999   0.333330009000001   0.500000000000000 1
ion B   0.416670005000000   0.333330009000001   0.500000000000000 1
ion B   0.666670005000000   0.333330009000001   0.500000000000000 1
ion B   0.916669980999998   0.333330009000001   0.500000000000000 1
ion B   0.166670009999997   0.583330017999998   0.500000000000000 1
ion B   0.416670021999998   0.583330017999998   0.500000000000000 1
ion B   0.666670046000000   0.583330017999998   0.500000000000000 1
ion B   0.916669998000003   0.583330017999998   0.500000000000000 1
ion B   0.166669990999999   0.833330027999999   0.500000000000000 1
ion B   0.416670013999997   0.833330027999999   0.500000000000000 1
ion B   0.666670037999999   0.833330027999999   0.500000000000000 1
ion B   0.916670013999997   0.833330027999999   0.500000000000000 1
ion N   0.083329997000000   0.166669994999999   0.500000000000000 1
ion N   0.333330021000002   0.166669994999999   0.500000000000000 1
ion N   0.583329997000000   0.166669994999999   0.500000000000000 1
ion N   0.833330021000002   0.166669994999999   0.500000000000000 1
ion N   0.083329997000000   0.416670017999998   0.500000000000000 1
ion N   0.333330019999998   0.416670017999998   0.500000000000000 1
ion N   0.583329997000000   0.416670017999998   0.500000000000000 1
ion N   0.833329997000000   0.416670017999998   0.500000000000000 1
ion N   0.083329988999999   0.666670027000002   0.500000000000000 1
ion N   0.333330013000001   0.666670027000002   0.500000000000000 1
ion N   0.583329988999999   0.666670027000002   0.500000000000000 1
ion N   0.833330013000001   0.666670027000002   0.500000000000000 1
ion N   0.083330005999997   0.916670035999999   0.500000000000000 1
ion N   0.333330029000003   0.916670035999999   0.500000000000000 1
ion N   0.583330005999997   0.916670035999999   0.500000000000000 1
ion N   0.833330029000003   0.916670035999999   0.500000000000000 1
ion-species GBRV/$ID_pbe.uspp
ion-width Ecut
ionic-minimize  \
	dirUpdateScheme      L-BFGS \
	linminMethod         DirUpdateRecommended \
	nIterations          500 \
	history              15 \
	knormThreshold       0.0001 \
	energyDiffThreshold  1e-06 \
	nEnergyDiff          2 \
	alphaTstart          1 \
	alphaTmin            1e-10 \
	updateTestStepSize   yes \
	alphaTreduceFactor   0.1 \
	alphaTincreaseFactor 3 \
	nAlphaAdjustMax      3 \
	wolfeEnergy          0.0001 \
	wolfeGradient        0.9 \
	fdTest               no
kpoint   0.000000000000   0.000000000000   0.000000000000  1.00000000000000
kpoint-folding 6 6 1 
latt-move-scale 1 1 1
latt-scale 1.88973 1.88973 1.88973 
lattice Triclinic 10.0123 10.0123 15 90 90 120
lattice-minimize  \
	dirUpdateScheme      L-BFGS \
	linminMethod         DirUpdateRecommended \
	nIterations          0 \
	history              15 \
	knormThreshold       0 \
	energyDiffThreshold  1e-06 \
	nEnergyDiff          2 \
	alphaTstart          1 \
	alphaTmin            1e-10 \
	updateTestStepSize   yes \
	alphaTreduceFactor   0.1 \
	alphaTincreaseFactor 3 \
	nAlphaAdjustMax      3 \
	wolfeEnergy          0.0001 \
	wolfeGradient        0.9 \
	fdTest               no
lcao-params -1 1e-06 0.0073499
pcm-variant CANDLE
spintype z-spin
subspace-rotation-factor 1 yes
symmetries automatic
symmetry-threshold 0.0001



---------- Setting up symmetries ----------

Found 24 point-group symmetries of the bravais lattice
Found 64 space-group symmetries with basis
Applied RMS atom displacement 3.8962e-07 bohrs to make symmetries exact.

---------- Initializing the Grid ----------
R = 
[    18.9205   -9.46025          0  ]
[          0    16.3856          0  ]
[          0          0    28.3459  ]
unit cell volume = 8787.92
G =
[   0.332083   0.191728         -0  ]
[          0   0.383457          0  ]
[          0         -0   0.221661  ]
Minimum fftbox size, Smin = [  80  80  116  ]
Chosen fftbox size, S = [  80  80  120  ]

---------- Exchange Correlation functional ----------
Initalized PBE GGA exchange.
Initalized PBE GGA correlation.

---------- Setting up pseudopotentials ----------
Width of ionic core gaussian charges (only for fluid interactions / plotting) set to 0.397384

Reading pseudopotential file '/home/guoxy/vasp/jdftx-1.5.0/build/pseudopotentials/GBRV/b_pbe.uspp':
  Title: B.  Created by USPP 7.3.6 on 8-4-15
  Reference state energy: -2.950027.  3 valence electrons in orbitals:
    |200>  occupation: 2  eigenvalue: -0.346865
    |210>  occupation: 1  eigenvalue: -0.132618
  lMax: 1  lLocal: 2  QijEcut: 6
  4 projectors sampled on a log grid with 559 points:
    l: 0  eig: -0.346865  rCut: 1.25
    l: 0  eig: -0.500000  rCut: 1.25
    l: 1  eig: -0.346865  rCut: 1.25
    l: 1  eig: -1.000000  rCut: 1.25
  Partial core density with radius 0.9
  Transforming core density to a uniform radial grid of dG=0.02 with 1491 points.
  Transforming local potential to a uniform radial grid of dG=0.02 with 1491 points.
  Transforming nonlocal projectors to a uniform radial grid of dG=0.02 with 432 points.
  Transforming density augmentations to a uniform radial grid of dG=0.02 with 1491 points.
  Transforming atomic orbitals to a uniform radial grid of dG=0.02 with 432 points.
  Core radius for overlap checks: 1.25 bohrs.

Reading pseudopotential file '/home/guoxy/vasp/jdftx-1.5.0/build/pseudopotentials/GBRV/n_pbe.uspp':
  Title: N.  Created by USPP 7.3.6 on 3-2-2014
  Reference state energy: -9.763716.  5 valence electrons in orbitals:
    |200>  occupation: 2  eigenvalue: -0.681964
    |210>  occupation: 3  eigenvalue: -0.260726
  lMax: 1  lLocal: 2  QijEcut: 6
  4 projectors sampled on a log grid with 491 points:
    l: 0  eig: -0.681964  rCut: 1.15
    l: 0  eig: 0.000000  rCut: 1.15
    l: 1  eig: -0.260729  rCut: 1.2
    l: 1  eig: 0.500000  rCut: 1.2
  Partial core density with radius 0.8
  Transforming core density to a uniform radial grid of dG=0.02 with 1491 points.
  Transforming local potential to a uniform radial grid of dG=0.02 with 1491 points.
  Transforming nonlocal projectors to a uniform radial grid of dG=0.02 with 432 points.
  Transforming density augmentations to a uniform radial grid of dG=0.02 with 1491 points.
  Transforming atomic orbitals to a uniform radial grid of dG=0.02 with 432 points.
  Core radius for overlap checks: 1.20 bohrs.

Initialized 2 species with 32 total atoms.

Folded 1 k-points by 6x6x1 to 36 k-points.

---------- Setting up k-points, bands, fillings ----------
Adding inversion symmetry to k-mesh for non-inversion-symmetric unit cell.
Reduced to 13 k-points under symmetry. 
Computing the number of bands and number of electrons
Calculating initial fillings.
nElectrons: 130.000000   nBands: 128   nStates: 26

----- Setting up reduced wavefunction bases (one per k-point) -----
average nbasis = 37544.417 , ideal nbasis = 37542.666

---------- Setting up coulomb interaction ----------
Fluid mode embedding: using embedded box, but periodic Coulomb kernel.
(Fluid response is responsible for (approximate) separation between periodic images.)
Setting up double-sized grid for truncated Coulomb potentials:
R = 
[    18.9205   -9.46025          0  ]
[          0    16.3856          0  ]
[          0          0    56.6918  ]
unit cell volume = 17575.8
G =
[   0.332083   0.191728         -0  ]
[          0   0.383457          0  ]
[          0         -0   0.110831  ]
Chosen fftbox size, S = [  80  80  240  ]
Integer grid location selected as the embedding center:
   Grid: [  40  40  60  ]
   Lattice: [  0.5  0.5  0.5  ]
   Cartesian: [  4.73013  8.19282  14.1729  ]
Constructing Wigner-Seitz cell: 8 faces (6 quadrilaterals, 2 hexagons)
Range-separation parameter for embedded mesh potentials due to point charges: 0.613524 bohrs.

Initializing van der Waals corrections
	NOTE: vdW corrections apply only for interactions with fluid.
	 B:  C6:   54.29 Eh-a0^6  R0: 2.806 a0
	 N:  C6:   21.33 Eh-a0^6  R0: 2.640 a0

---------- Setting up ewald sum ----------
Optimum gaussian width for ewald sums = 5.821351 bohr.
Real space sum over 605 unit cells with max indices [  5  5  2  ]
Reciprocal space sum over 5577 terms with max indices [  6  6  16  ]

---------- Allocating electronic variables ----------
Initializing wave functions:  linear combination of atomic orbitals
B pseudo-atom occupations:   s ( 2 )  p ( 1 )
N pseudo-atom occupations:   s ( 2 )  p ( 3 )
	FillingsUpdate:  mu: +0.200997267  nElectrons: 130.000000  magneticMoment: [ Abs: 1.76337  Tot: +1.31480 ]
LCAOMinimize: Iter:   0  F: -203.5991208375137091  |grad|_K:  4.568e-03  alpha:  1.000e+00
	FillingsUpdate:  mu: +0.230207276  nElectrons: 130.000000  magneticMoment: [ Abs: 2.08452  Tot: +1.76079 ]
LCAOMinimize: Iter:   1  F: -205.1948606203467023  |grad|_K:  5.689e-04  alpha:  4.302e-01  linmin:  6.146e-01  cgtest: -1.090e+00  t[s]:     81.70
LCAOMinimize: 	Bad step direction: g.d > 0.
LCAOMinimize: 	Undoing step.
LCAOMinimize: 	Step failed: resetting search direction.
	FillingsUpdate:  mu: +0.230207276  nElectrons: 130.000000  magneticMoment: [ Abs: 2.08452  Tot: +1.76079 ]
LCAOMinimize: Iter:   2  F: -205.1948606203467023  |grad|_K:  5.689e-04  alpha:  0.000e+00
	FillingsUpdate:  mu: +0.224864841  nElectrons: 130.000000  magneticMoment: [ Abs: 1.95572  Tot: +1.56597 ]
LCAOMinimize: Iter:   3  F: -205.2233785026289752  |grad|_K:  5.147e-05  alpha:  4.066e-01  linmin:  2.441e-02  cgtest: -1.761e-01  t[s]:    122.60
LCAOMinimize: 	Predicted alpha/alphaT>3.000000, increasing alphaT to 1.219919e+00.
	FillingsUpdate:  mu: +0.226037814  nElectrons: 130.000000  magneticMoment: [ Abs: 0.75291  Tot: +0.09586 ]
LCAOMinimize: Iter:   4  F: -205.2246102936973102  |grad|_K:  5.375e-05  alpha:  3.107e+00  linmin:  1.326e-01  cgtest: -1.428e-01  t[s]:    157.67
	FillingsUpdate:  mu: +0.226235732  nElectrons: 130.000000  magneticMoment: [ Abs: 0.35898  Tot: -0.28761 ]
LCAOMinimize: Iter:   5  F: -205.2248528460670229  |grad|_K:  4.493e-05  alpha:  6.906e-01  linmin: -3.052e-03  cgtest:  7.264e-01  t[s]:    182.46
	FillingsUpdate:  mu: +0.225729005  nElectrons: 130.000000  magneticMoment: [ Abs: 0.17128  Tot: -0.16717 ]
LCAOMinimize: Iter:   6  F: -205.2252903445382231  |grad|_K:  2.183e-05  alpha:  1.000e+00  linmin: -4.022e-04  cgtest: -1.911e-02  t[s]:    208.29
	FillingsUpdate:  mu: +0.225897339  nElectrons: 130.000000  magneticMoment: [ Abs: 0.15441  Tot: -0.12725 ]
LCAOMinimize: Iter:   7  F: -205.2253418874173860  |grad|_K:  3.994e-06  alpha:  5.006e-01  linmin:  9.419e-04  cgtest: -2.225e-02  t[s]:    234.43
LCAOMinimize: 	Predicted alpha/alphaT>3.000000, increasing alphaT to 1.501847e+00.
	FillingsUpdate:  mu: +0.225943542  nElectrons: 130.000000  magneticMoment: [ Abs: 0.13289  Tot: -0.08685 ]
LCAOMinimize: Iter:   8  F: -205.2253473759688234  |grad|_K:  2.576e-06  alpha:  1.592e+00  linmin: -2.227e-05  cgtest:  5.560e-03  t[s]:    266.06
	FillingsUpdate:  mu: +0.225951175  nElectrons: 130.000000  magneticMoment: [ Abs: 0.04054  Tot: -0.02426 ]
LCAOMinimize: Iter:   9  F: -205.2253516073268429  |grad|_K:  3.100e-06  alpha:  2.949e+00  linmin:  8.725e-04  cgtest: -1.230e-03  t[s]:    292.20
	FillingsUpdate:  mu: +0.225919081  nElectrons: 130.000000  magneticMoment: [ Abs: 0.00986  Tot: -0.00498 ]
LCAOMinimize: Iter:  10  F: -205.2253527905364194  |grad|_K:  8.878e-07  alpha:  5.711e-01  linmin:  3.762e-03  cgtest: -4.985e-03  t[s]:    317.52
	FillingsUpdate:  mu: +0.225930041  nElectrons: 130.000000  magneticMoment: [ Abs: 0.00161  Tot: -0.00124 ]
LCAOMinimize: Iter:  11  F: -205.2253529750150278  |grad|_K:  6.976e-08  alpha:  1.084e+00  linmin: -7.259e-04  cgtest:  3.235e-02  t[s]:    342.02
	FillingsUpdate:  mu: +0.225929305  nElectrons: 130.000000  magneticMoment: [ Abs: 0.00167  Tot: -0.00133 ]
LCAOMinimize: Iter:  12  F: -205.2253529756552552  |grad|_K:  3.923e-08  alpha:  6.265e-01  linmin:  1.698e-03  cgtest: -7.448e-03  t[s]:    368.03
LCAOMinimize: Converged (|Delta F|<1.000000e-06 for 2 iters).
----- createFluidSolver() ----- (Fluid-side solver setup)
   Initializing fluid molecule 'H2O'
     Initializing site 'O'
       Electron density: proportional to exp(-r/0.36935)*erfc((r-0.51523)/0.36823) with norm 6.826
       Charge density: gaussian nuclear width 0.478731 with net site charge 0.826
       Polarizability: cuspless exponential with width 0.32 and norm 3.73
       Hard sphere radius: 2.57003 bohrs
       Positions in reference frame:
         [ +0.000000 +0.000000 +0.000000 ]
     Initializing site 'H'
       Electron density: proportional to exp(-r/0.34641)*erfc((r-0)/0.390882) with norm 0.587
       Charge density: gaussian nuclear width 0.377945 with net site charge -0.413
       Polarizability: cuspless exponential with width 0.39 and norm 3.3
       Positions in reference frame:
         [ +0.000000 -1.441945 +1.122523 ]
         [ +0.000000 +1.441945 +1.122523 ]
     Net charge: 0   dipole magnitude: 0.927204
     Initializing spherical shell mfKernel with radius 2.61727 Bohr
     deltaS corrections:
       site 'O': -7.54299
       site 'H': -6.83917
   Initializing fluid molecule 'Na+'
     Initializing site 'Na'
       Electron density: proportional to exp(-r/0.19682)*erfc((r-0.71491)/0.41314) with norm 8.1383
       Charge density: gaussian nuclear width 0.365347 with net site charge -1
       Hard sphere radius: 1.86327 bohrs
       Positions in reference frame:
         [ +0.000000 +0.000000 +0.000000 ]
     Net charge: -1   dipole magnitude: 0
     Initializing gaussian mfKernel with width: 1.55004 Bohr
     deltaS corrections:
       site 'Na': -22.3555
   Initializing fluid molecule 'F-'
     Initializing site 'F'
       Electron density: proportional to exp(-r/0.38886)*erfc((r-0)/0.438782) with norm 8
       Charge density: gaussian nuclear width 0.374796 with net site charge 1
       Hard sphere radius: 2.39995 bohrs
       Positions in reference frame:
         [ +0.000000 +0.000000 +0.000000 ]
     Net charge: 1   dipole magnitude: 0
     Initializing gaussian mfKernel with width: 1.59012 Bohr
     deltaS corrections:
       site 'F': -9.04335

Correction to mu due to finite nuclear width = -0.00722593
   Cavity determined by nc: 0.00142 and sigma: 0.707107
   Nonlocal vdW cavity from gaussian model electron density with norm = 8 and sigma = 0.993594 bohr
   Charge asymmetry in cavity with sensitivity pCavity = 36.5 e-bohr/Eh
   Electrostatic cavity expanded by eta = 1.46 bohrs
   Weighted density cavitation model constrained by Nbulk: 0.0049383 bohr^-3, Pvap: 3.14029 kPa, Rvdw: 2.61727 bohr and sigmaBulk: 4.62e-05 Eh/bohr^2 at T: 298 K.
   Weighted density dispersion model using vdW pair potentials with single solvent site with sqrtC6eff: 0.77 SI.


---- Citations for features of the code used in this run ----

   Software package:
      R. Sundararaman, K. Letchworth-Weaver, K.A. Schwarz, D. Gunceler, Y. Ozhabes and T.A. Arias, 'JDFTx: software for joint density-functional theory', SoftwareX 6, 278 (2017)

   gga-PBE exchange-correlation functional:
      J.P. Perdew, K. Burke and M. Ernzerhof, Phys. Rev. Lett. 77, 3865 (1996)

   Pseudopotentials:
      KF Garrity, JW Bennett, KM Rabe and D Vanderbilt, Comput. Mater. Sci. 81, 446 (2014)

   Truncated Coulomb potentials:
      R. Sundararaman and T.A. Arias, Phys. Rev. B 87, 165122 (2013)

   Van der Waals correction pair-potentials:
      S. Grimme, J. Comput. Chem. 27, 1787 (2006)

   Charge-asymmetric nonlocally-determined local-electric (CANDLE) solvation model:
      R. Sundararaman and W.A. Goddard III, J. Chem. Phys. 142, 064107 (2015)

   Total energy minimization with Auxiliary Hamiltonian:
      C. Freysoldt, S. Boeck, and J. Neugebauer, Phys. Rev. B 79, 241103(R) (2009)

This list may not be complete. Please suggest additional citations or
report any other bugs at https://github.com/shankar1729/jdftx/issues

Initialization completed successfully at t[s]:    371.21

Fluid solver invoked on fresh (partially random / LCAO) wavefunctions
Running a vacuum solve first:

-------- Initial electronic minimization -----------
	FillingsUpdate:  mu: +0.225929305  nElectrons: 130.000000  magneticMoment: [ Abs: 0.00167  Tot: -0.00133 ]
ElecMinimize: Iter:   0  F: -205.225352975656278  |grad|_K:  1.146e-04  alpha:  1.000e+00
	FillingsUpdate:  mu: +0.295708668  nElectrons: 130.000000  magneticMoment: [ Abs: 0.00195  Tot: -0.00144 ]
	SubspaceRotationAdjust: set factor to 1
ElecMinimize: Iter:   1  F: -206.440817356936748  |grad|_K:  3.414e-05  alpha:  7.392e-01  linmin:  7.875e-05  t[s]:    419.07
	FillingsUpdate:  mu: +0.299929877  nElectrons: 130.000000  magneticMoment: [ Abs: 0.00245  Tot: -0.00219 ]
	SubspaceRotationAdjust: set factor to 0.692
ElecMinimize: Iter:   2  F: -206.557224946060046  |grad|_K:  1.794e-05  alpha:  7.986e-01  linmin: -6.622e-05  t[s]:    448.68
	FillingsUpdate:  mu: +0.292950354  nElectrons: 130.000000  magneticMoment: [ Abs: 0.00350  Tot: -0.00330 ]
	SubspaceRotationAdjust: set factor to 0.608
ElecMinimize: Iter:   3  F: -206.582862518748414  |grad|_K:  9.416e-06  alpha:  6.271e-01  linmin:  3.392e-05  t[s]:    477.74
	FillingsUpdate:  mu: +0.235939478  nElectrons: 130.000000  magneticMoment: [ Abs: 0.05873  Tot: -0.05866 ]
	SubspaceRotationAdjust: set factor to 0.753
ElecMinimize: Iter:   4  F: -206.614887471171869  |grad|_K:  1.264e-05  alpha:  1.054e+00  linmin: -1.002e-02  t[s]:    506.44
ElecMinimize: 	Step increased F by 1.677237e-02, reducing alpha to 3.697610e-02.
	FillingsUpdate:  mu: +0.220347288  nElectrons: 130.000000  magneticMoment: [ Abs: 0.03939  Tot: -0.03775 ]
	SubspaceRotationAdjust: set factor to 1.01
ElecMinimize: Iter:   5  F: -206.620698758841769  |grad|_K:  1.259e-05  alpha:  3.698e-02  linmin: -5.460e-03  t[s]:    555.75
ElecMinimize: 	Predicted alpha/alphaT>3.000000, increasing alphaT to 1.109283e-01.
	FillingsUpdate:  mu: +0.152361698  nElectrons: 130.000000  magneticMoment: [ Abs: 0.07159  Tot: +0.06160 ]
	SubspaceRotationAdjust: set factor to 0.894
ElecMinimize: Iter:   6  F: -206.633993715582250  |grad|_K:  2.017e-05  alpha:  1.533e-01  linmin:  2.733e-04  t[s]:    591.97
ElecMinimize: 	Step increased F by 2.038894e-03, reducing alpha to 3.273052e-03.
	FillingsUpdate:  mu: +0.148879548  nElectrons: 130.000000  magneticMoment: [ Abs: 0.07212  Tot: +0.06232 ]
	SubspaceRotationAdjust: set factor to 0.797
ElecMinimize: Iter:   7  F: -206.634152229303169  |grad|_K:  2.014e-05  alpha:  3.273e-03  linmin: -1.818e-04  t[s]:    638.49
ElecMinimize: 	Predicted alpha/alphaT>3.000000, increasing alphaT to 9.819157e-03.
	FillingsUpdate:  mu: +0.126065748  nElectrons: 130.000000  magneticMoment: [ Abs: 0.06887  Tot: +0.05701 ]
	SubspaceRotationAdjust: set factor to 0.607
ElecMinimize: Iter:   8  F: -206.635824871967344  |grad|_K:  2.336e-05  alpha:  2.397e-02  linmin: -2.897e-05  t[s]:    675.76
	FillingsUpdate:  mu: +0.098254255  nElectrons: 130.000000  magneticMoment: [ Abs: 0.06031  Tot: +0.04106 ]
	SubspaceRotationAdjust: set factor to 0.445
ElecMinimize: Iter:   9  F: -206.637919406785528  |grad|_K:  2.438e-05  alpha:  2.761e-02  linmin: -7.826e-05  t[s]:    705.59
ElecMinimize: 	Wrong curvature in test step, increasing alphaT to 8.281981e-02.
	FillingsUpdate:  mu: +0.080092407  nElectrons: 130.000000  magneticMoment: [ Abs: 0.05103  Tot: +0.02608 ]
	SubspaceRotationAdjust: set factor to 0.367
ElecMinimize: Iter:  10  F: -206.642922119499190  |grad|_K:  2.184e-05  alpha: -8.729e+00  linmin: -5.001e-04  t[s]:    733.56
	FillingsUpdate:  mu: +0.078480458  nElectrons: 130.000000  magneticMoment: [ Abs: 0.04971  Tot: +0.02471 ]
	SubspaceRotationAdjust: set factor to 0.333
ElecMinimize: Iter:  11  F: -206.644823866212590  |grad|_K:  2.032e-05  alpha:  6.246e-03  linmin: -8.299e-04  t[s]:    762.83
ElecMinimize: 	Wrong curvature in test step, increasing alphaT to 1.873809e-02.
	FillingsUpdate:  mu: +0.077789472  nElectrons: 130.000000  magneticMoment: [ Abs: 0.04895  Tot: +0.02432 ]
	SubspaceRotationAdjust: set factor to 0.322
ElecMinimize: Iter:  12  F: -206.647205846913380  |grad|_K:  1.948e-05  alpha: -2.037e-01  linmin: -1.122e-03  t[s]:    790.88
	FillingsUpdate:  mu: +0.077904550  nElectrons: 130.000000  magneticMoment: [ Abs: 0.04842  Tot: +0.02497 ]
	SubspaceRotationAdjust: set factor to 0.33
ElecMinimize: Iter:  13  F: -206.652135429797141  |grad|_K:  1.872e-05  alpha:  1.076e-02  linmin: -1.410e-03  t[s]:    819.76
ElecMinimize: 	Wrong curvature in test step, increasing alphaT to 3.229175e-02.
	FillingsUpdate:  mu: +0.079231212  nElectrons: 130.000000  magneticMoment: [ Abs: 0.04863  Tot: +0.02657 ]
	SubspaceRotationAdjust: set factor to 0.348
ElecMinimize: Iter:  14  F: -206.657706201477254  |grad|_K:  1.816e-05  alpha: -3.783e+00  linmin: -1.647e-03  t[s]:    847.88
	FillingsUpdate:  mu: +0.083741907  nElectrons: 130.000000  magneticMoment: [ Abs: 0.05079  Tot: +0.03001 ]
	SubspaceRotationAdjust: set factor to 0.392
ElecMinimize: Iter:  15  F: -206.668654175927827  |grad|_K:  1.718e-05  alpha:  1.991e-02  linmin: -1.747e-03  t[s]:    877.17
ElecMinimize: 	Predicted alpha/alphaT>3.000000, increasing alphaT to 5.973561e-02.
	FillingsUpdate:  mu: +0.114974316  nElectrons: 130.000000  magneticMoment: [ Abs: 0.05151  Tot: +0.00218 ]
	SubspaceRotationAdjust: set factor to 0.482
ElecMinimize: Iter:  16  F: -206.696348718803790  |grad|_K:  1.542e-05  alpha:  1.134e-01  linmin:  2.818e-04  t[s]:    914.49
ElecMinimize: 	Bad step direction: g.d > 0.
ElecMinimize: 	Undoing step.
ElecMinimize: 	Step failed: resetting search direction.
	FillingsUpdate:  mu: +0.114974316  nElectrons: 130.000000  magneticMoment: [ Abs: 0.05151  Tot: +0.00218 ]
	SubspaceRotationAdjust: set factor to 0.59
ElecMinimize: Iter:  17  F: -206.696348718804273  |grad|_K:  1.563e-05  alpha:  0.000e+00
ElecMinimize: 	Predicted alpha/alphaT>3.000000, increasing alphaT to 3.401938e-01.
ElecMinimize: 	Predicted alpha/alphaT>3.000000, increasing alphaT to 1.020581e+00.
	FillingsUpdate:  mu: +0.117242037  nElectrons: 130.000000  magneticMoment: [ Abs: 0.03749  Tot: +0.01372 ]
	SubspaceRotationAdjust: set factor to 0.532
ElecMinimize: Iter:  18  F: -206.746913403838590  |grad|_K:  1.429e-05  alpha:  1.674e+00  linmin:  8.353e-04  t[s]:    981.76
	FillingsUpdate:  mu: +0.097969542  nElectrons: 130.000000  magneticMoment: [ Abs: 0.05052  Tot: +0.00031 ]
	SubspaceRotationAdjust: set factor to 0.454
ElecMinimize: Iter:  19  F: -206.770875314840424  |grad|_K:  1.426e-05  alpha:  1.128e+00  linmin: -1.097e-04  t[s]:   1010.35
	FillingsUpdate:  mu: +0.059765738  nElectrons: 130.000000  magneticMoment: [ Abs: 0.05799  Tot: +0.03474 ]
	SubspaceRotationAdjust: set factor to 0.433
ElecMinimize: Iter:  20  F: -206.788473519763556  |grad|_K:  1.180e-05  alpha:  7.817e-01  linmin: -1.922e-04  t[s]:   1039.59
	FillingsUpdate:  mu: +0.051598732  nElectrons: 130.000000  magneticMoment: [ Abs: 0.07139  Tot: +0.07035 ]
	SubspaceRotationAdjust: set factor to 0.507
ElecMinimize: Iter:  21  F: -206.807054092184927  |grad|_K:  1.194e-05  alpha:  1.118e+00  linmin:  3.474e-04  t[s]:   1068.34
	FillingsUpdate:  mu: +0.051061997  nElectrons: 130.000000  magneticMoment: [ Abs: 0.09783  Tot: +0.09746 ]
	SubspaceRotationAdjust: set factor to 0.621
ElecMinimize: Iter:  22  F: -206.813742722211970  |grad|_K:  9.526e-06  alpha:  4.310e-01  linmin: -6.449e-05  t[s]:   1097.95
	FillingsUpdate:  mu: +0.049353388  nElectrons: 130.000000  magneticMoment: [ Abs: 0.09185  Tot: +0.09088 ]
	SubspaceRotationAdjust: set factor to 0.835
ElecMinimize: Iter:  23  F: -206.818922326418715  |grad|_K:  8.955e-06  alpha:  4.403e-01  linmin:  4.347e-05  t[s]:   1127.28
	FillingsUpdate:  mu: +0.045442625  nElectrons: 130.000000  magneticMoment: [ Abs: 0.05625  Tot: +0.04992 ]
	SubspaceRotationAdjust: set factor to 1.01
ElecMinimize: Iter:  24  F: -206.823504621304437  |grad|_K:  1.119e-05  alpha:  5.026e-01  linmin:  2.434e-04  t[s]:   1155.58
	FillingsUpdate:  mu: +0.044540640  nElectrons: 130.000000  magneticMoment: [ Abs: 0.05058  Tot: +0.04573 ]
	SubspaceRotationAdjust: set factor to 1.35
ElecMinimize: Iter:  25  F: -206.824445483946903  |grad|_K:  1.167e-05  alpha:  6.175e-02  linmin: -2.267e-04  t[s]:   1184.52
ElecMinimize: 	Predicted alpha/alphaT>3.000000, increasing alphaT to 1.852397e-01.
	FillingsUpdate:  mu: +0.045732664  nElectrons: 130.000000  magneticMoment: [ Abs: 0.03842  Tot: +0.03696 ]
	SubspaceRotationAdjust: set factor to 1.27
ElecMinimize: Iter:  26  F: -206.827573299702834  |grad|_K:  1.179e-05  alpha:  1.030e-01  linmin: -2.775e-04  t[s]:   1222.26
	FillingsUpdate:  mu: +0.046952886  nElectrons: 130.000000  magneticMoment: [ Abs: 0.03098  Tot: +0.02984 ]
	SubspaceRotationAdjust: set factor to 1.14
ElecMinimize: Iter:  27  F: -206.828589279654835  |grad|_K:  1.132e-05  alpha:  3.609e-02  linmin: -3.631e-04  t[s]:   1251.73
	FillingsUpdate:  mu: +0.047087109  nElectrons: 130.000000  magneticMoment: [ Abs: 0.02218  Tot: +0.02014 ]
	SubspaceRotationAdjust: set factor to 0.879
ElecMinimize: Iter:  28  F: -206.829287062089207  |grad|_K:  1.192e-05  alpha:  3.449e-02  linmin:  1.176e-04  t[s]:   1281.04
	FillingsUpdate:  mu: +0.046632696  nElectrons: 130.000000  magneticMoment: [ Abs: 0.01528  Tot: +0.01132 ]
	SubspaceRotationAdjust: set factor to 0.633
ElecMinimize: Iter:  29  F: -206.829677464681851  |grad|_K:  1.216e-05  alpha:  2.302e-02  linmin:  1.433e-06  t[s]:   1310.19
	FillingsUpdate:  mu: +0.045679347  nElectrons: 130.000000  magneticMoment: [ Abs: 0.00933  Tot: -0.00153 ]
	SubspaceRotationAdjust: set factor to 0.438
ElecMinimize: Iter:  30  F: -206.830213354337104  |grad|_K:  1.219e-05  alpha:  2.904e-02  linmin:  1.477e-05  t[s]:   1339.26
	FillingsUpdate:  mu: +0.044261337  nElectrons: 130.000000  magneticMoment: [ Abs: 0.01956  Tot: -0.01800 ]
	SubspaceRotationAdjust: set factor to 0.312
ElecMinimize: Iter:  31  F: -206.830865472488426  |grad|_K:  1.159e-05  alpha:  3.537e-02  linmin: -6.874e-07  t[s]:   1368.87
	FillingsUpdate:  mu: +0.042569113  nElectrons: 130.000000  magneticMoment: [ Abs: 0.03674  Tot: -0.03590 ]
	SubspaceRotationAdjust: set factor to 0.252
ElecMinimize: Iter:  32  F: -206.831583308857404  |grad|_K:  1.055e-05  alpha:  4.287e-02  linmin:  1.462e-05  t[s]:   1397.89
	FillingsUpdate:  mu: +0.041057675  nElectrons: 130.000000  magneticMoment: [ Abs: 0.05107  Tot: -0.05064 ]
	SubspaceRotationAdjust: set factor to 0.242
ElecMinimize: Iter:  33  F: -206.832193830900650  |grad|_K:  9.670e-06  alpha:  4.457e-02  linmin:  1.492e-05  t[s]:   1426.79
	FillingsUpdate:  mu: +0.039794606  nElectrons: 130.000000  magneticMoment: [ Abs: 0.06227  Tot: -0.06198 ]
	SubspaceRotationAdjust: set factor to 0.255
ElecMinimize: Iter:  34  F: -206.832687594576441  |grad|_K:  9.143e-06  alpha:  4.300e-02  linmin:  7.464e-06  t[s]:   1455.50
	FillingsUpdate:  mu: +0.038671265  nElectrons: 130.000000  magneticMoment: [ Abs: 0.07139  Tot: -0.07114 ]
	SubspaceRotationAdjust: set factor to 0.262
ElecMinimize: Iter:  35  F: -206.833107833195015  |grad|_K:  8.754e-06  alpha:  4.058e-02  linmin:  2.085e-06  t[s]:   1485.13
	FillingsUpdate:  mu: +0.037551033  nElectrons: 130.000000  magneticMoment: [ Abs: 0.07912  Tot: -0.07886 ]
	SubspaceRotationAdjust: set factor to 0.247
ElecMinimize: Iter:  36  F: -206.833480486476532  |grad|_K:  8.326e-06  alpha:  3.897e-02  linmin: -1.798e-06  t[s]:   1514.36
	FillingsUpdate:  mu: +0.036255417  nElectrons: 130.000000  magneticMoment: [ Abs: 0.08587  Tot: -0.08558 ]
	SubspaceRotationAdjust: set factor to 0.209
ElecMinimize: Iter:  37  F: -206.833823200101108  |grad|_K:  7.762e-06  alpha:  3.941e-02  linmin: -5.353e-06  t[s]:   1543.54
	FillingsUpdate:  mu: +0.034667770  nElectrons: 130.000000  magneticMoment: [ Abs: 0.09190  Tot: -0.09158 ]
	SubspaceRotationAdjust: set factor to 0.162
ElecMinimize: Iter:  38  F: -206.834146848219746  |grad|_K:  7.049e-06  alpha:  4.265e-02  linmin: -9.291e-06  t[s]:   1572.37
	FillingsUpdate:  mu: +0.032834581  nElectrons: 130.000000  magneticMoment: [ Abs: 0.09742  Tot: -0.09705 ]
	SubspaceRotationAdjust: set factor to 0.12
	SubspaceRotationAdjust: resetting CG because factor has changed by 0.119544
ElecMinimize: 	State modified externally: resetting search direction.
ElecMinimize: Iter:  39  F: -206.834458679480434  |grad|_K:  5.702e-06  alpha:  4.974e-02
ElecMinimize: 	Predicted alpha/alphaT>3.000000, increasing alphaT to 1.492144e-01.
ElecMinimize: 	Predicted alpha/alphaT>3.000000, increasing alphaT to 4.476432e-01.
ElecMinimize: 	Predicted alpha/alphaT>3.000000, increasing alphaT to 1.342929e+00.
	FillingsUpdate:  mu: +0.032316098  nElectrons: 130.000000  magneticMoment: [ Abs: 0.08532  Tot: -0.08479 ]
	SubspaceRotationAdjust: set factor to 0.154
ElecMinimize: Iter:  40  F: -206.847572791258074  |grad|_K:  8.389e-06  alpha:  3.342e+00  linmin:  3.168e-04  t[s]:   1667.19
	FillingsUpdate:  mu: +0.032362786  nElectrons: 130.000000  magneticMoment: [ Abs: 0.06626  Tot: -0.06511 ]
	SubspaceRotationAdjust: set factor to 0.194
ElecMinimize: Iter:  41  F: -206.855324860131816  |grad|_K:  4.285e-06  alpha:  9.789e-01  linmin:  8.078e-04  t[s]:   1696.60
	FillingsUpdate:  mu: +0.031557704  nElectrons: 130.000000  magneticMoment: [ Abs: 0.05437  Tot: -0.05419 ]
	SubspaceRotationAdjust: set factor to 0.229
ElecMinimize: Iter:  42  F: -206.857601917495344  |grad|_K:  2.497e-06  alpha:  1.047e+00  linmin: -1.403e-04  t[s]:   1725.21
	FillingsUpdate:  mu: +0.030904418  nElectrons: 130.000000  magneticMoment: [ Abs: 0.04413  Tot: -0.04367 ]
	SubspaceRotationAdjust: set factor to 0.257
ElecMinimize: Iter:  43  F: -206.858571704172789  |grad|_K:  1.963e-06  alpha:  1.229e+00  linmin: -3.131e-05  t[s]:   1753.89
	FillingsUpdate:  mu: +0.031314881  nElectrons: 130.000000  magneticMoment: [ Abs: 0.03121  Tot: -0.03101 ]
	SubspaceRotationAdjust: set factor to 0.284
ElecMinimize: Iter:  44  F: -206.859194216349351  |grad|_K:  1.241e-06  alpha:  1.283e+00  linmin:  7.145e-06  t[s]:   1782.83
	FillingsUpdate:  mu: +0.031536255  nElectrons: 130.000000  magneticMoment: [ Abs: 0.02490  Tot: -0.02445 ]
	SubspaceRotationAdjust: set factor to 0.313
ElecMinimize: Iter:  45  F: -206.859364341027316  |grad|_K:  7.370e-07  alpha:  8.791e-01  linmin: -2.727e-07  t[s]:   1811.23
	FillingsUpdate:  mu: +0.031484091  nElectrons: 130.000000  magneticMoment: [ Abs: 0.01946  Tot: -0.01833 ]
	SubspaceRotationAdjust: set factor to 0.395
ElecMinimize: Iter:  46  F: -206.859438210440089  |grad|_K:  4.373e-07  alpha:  1.090e+00  linmin:  2.258e-05  t[s]:   1840.37
	FillingsUpdate:  mu: +0.031390197  nElectrons: 130.000000  magneticMoment: [ Abs: 0.01495  Tot: -0.01378 ]
	SubspaceRotationAdjust: set factor to 0.506
ElecMinimize: Iter:  47  F: -206.859462996344973  |grad|_K:  3.009e-07  alpha:  1.046e+00  linmin:  4.229e-06  t[s]:   1869.15
	FillingsUpdate:  mu: +0.031444671  nElectrons: 130.000000  magneticMoment: [ Abs: 0.01013  Tot: -0.00918 ]
	SubspaceRotationAdjust: set factor to 0.687
ElecMinimize: Iter:  48  F: -206.859475176984034  |grad|_K:  1.923e-07  alpha:  1.079e+00  linmin:  7.408e-06  t[s]:   1897.78
	FillingsUpdate:  mu: +0.031482222  nElectrons: 130.000000  magneticMoment: [ Abs: 0.00615  Tot: -0.00554 ]
	SubspaceRotationAdjust: set factor to 0.767
ElecMinimize: Iter:  49  F: -206.859479815607159  |grad|_K:  1.350e-07  alpha:  1.012e+00  linmin:  5.303e-06  t[s]:   1926.50
	FillingsUpdate:  mu: +0.031429950  nElectrons: 130.000000  magneticMoment: [ Abs: 0.00319  Tot: -0.00289 ]
	SubspaceRotationAdjust: set factor to 0.743
ElecMinimize: Iter:  50  F: -206.859481632821883  |grad|_K:  1.026e-07  alpha:  8.025e-01  linmin:  1.262e-06  t[s]:   1954.99
	FillingsUpdate:  mu: +0.031478401  nElectrons: 130.000000  magneticMoment: [ Abs: 0.00090  Tot: -0.00083 ]
	SubspaceRotationAdjust: set factor to 0.797
ElecMinimize: Iter:  51  F: -206.859482596240696  |grad|_K:  7.761e-08  alpha:  7.330e-01  linmin:  1.513e-06  t[s]:   1983.11
	FillingsUpdate:  mu: +0.031461398  nElectrons: 130.000000  magneticMoment: [ Abs: 0.00083  Tot: +0.00068 ]
	SubspaceRotationAdjust: set factor to 0.96
	SubspaceRotationAdjust: resetting CG because factor has changed by 8.02873
ElecMinimize: 	State modified externally: resetting search direction.
ElecMinimize: Iter:  52  F: -206.859483196955068  |grad|_K:  5.483e-08  alpha:  8.042e-01
	FillingsUpdate:  mu: +0.031466055  nElectrons: 130.000000  magneticMoment: [ Abs: 0.00051  Tot: +0.00047 ]
	SubspaceRotationAdjust: set factor to 1.43
ElecMinimize: Iter:  53  F: -206.859483531349184  |grad|_K:  2.944e-08  alpha:  8.847e-01  linmin: -6.723e-06  t[s]:   2059.42
	FillingsUpdate:  mu: +0.031452063  nElectrons: 130.000000  magneticMoment: [ Abs: 0.00031  Tot: +0.00030 ]
	SubspaceRotationAdjust: set factor to 1.04
ElecMinimize: Iter:  54  F: -206.859483605038889  |grad|_K:  2.584e-08  alpha:  6.601e-01  linmin: -1.121e-07  t[s]:   2087.59
	FillingsUpdate:  mu: +0.031466462  nElectrons: 130.000000  magneticMoment: [ Abs: 0.00018  Tot: +0.00018 ]
	SubspaceRotationAdjust: set factor to 0.612
ElecMinimize: Iter:  55  F: -206.859483632568271  |grad|_K:  1.813e-08  alpha:  3.285e-01  linmin: -1.226e-07  t[s]:   2116.71
ElecMinimize: 	Predicted alpha/alphaT>3.000000, increasing alphaT to 9.854909e-01.
	FillingsUpdate:  mu: +0.031463089  nElectrons: 130.000000  magneticMoment: [ Abs: 0.00012  Tot: -0.00010 ]
	SubspaceRotationAdjust: set factor to 0.745
ElecMinimize: Iter:  56  F: -206.859483674556714  |grad|_K:  1.354e-08  alpha:  1.020e+00  linmin:  2.256e-07  t[s]:   2155.28
	FillingsUpdate:  mu: +0.031457912  nElectrons: 130.000000  magneticMoment: [ Abs: 0.00022  Tot: -0.00020 ]
	SubspaceRotationAdjust: set factor to 0.651
ElecMinimize: Iter:  57  F: -206.859483692971850  |grad|_K:  9.425e-09  alpha:  8.055e-01  linmin:  2.348e-08  t[s]:   2184.59
	FillingsUpdate:  mu: +0.031464527  nElectrons: 130.000000  magneticMoment: [ Abs: 0.00021  Tot: -0.00020 ]
	SubspaceRotationAdjust: set factor to 0.417
ElecMinimize: Iter:  58  F: -206.859483700109507  |grad|_K:  7.077e-09  alpha:  6.416e-01  linmin:  1.063e-08  t[s]:   2213.32
	FillingsUpdate:  mu: +0.031462694  nElectrons: 130.000000  magneticMoment: [ Abs: 0.00016  Tot: -0.00015 ]
	SubspaceRotationAdjust: set factor to 0.505
ElecMinimize: Iter:  59  F: -206.859483705834322  |grad|_K:  4.965e-09  alpha:  9.172e-01  linmin:  1.453e-07  t[s]:   2243.14
ElecMinimize: Converged (|Delta F|<1.000000e-08 for 2 iters).
Setting wave functions to eigenvectors of Hamiltonian
Vacuum energy after initial minimize, F = -206.859483705834322

	Linear fluid (dielectric constant: 78.4, screening length: 5.74355 Bohr) occupying 0.620739 of unit cell:	Completed after 13 iterations at t[s]:   2253.46

-------- Electronic minimization -----------
	Linear fluid (dielectric constant: 78.4, screening length: 5.74355 Bohr) occupying 0.620739 of unit cell:	Completed after 0 iterations at t[s]:   2263.47
	FillingsUpdate:  mu: -0.065269305  nElectrons: 130.000000  magneticMoment: [ Abs: 0.00010  Tot: -0.00009 ]
ElecMinimize: Iter:   0  F: -206.958362440955568  |grad|_K:  3.991e-06  alpha:  1.000e+00
	Linear fluid (dielectric constant: 78.4, screening length: 5.74355 Bohr) occupying 0.617820 of unit cell:	Completed after 10 iterations at t[s]:   2287.30
	Linear fluid (dielectric constant: 78.4, screening length: 5.74355 Bohr) occupying 0.617818 of unit cell:	Completed after 0 iterations at t[s]:   2298.76
	FillingsUpdate:  mu: -0.068036687  nElectrons: 130.000000  magneticMoment: [ Abs: 0.00051  Tot: -0.00011 ]
	SubspaceRotationAdjust: set factor to 0.529
ElecMinimize: Iter:   1  F: -206.960365101760715  |grad|_K:  1.728e-06  alpha:  1.003e+00  linmin: -4.487e-04  t[s]:   2311.94
	Linear fluid (dielectric constant: 78.4, screening length: 5.74355 Bohr) occupying 0.618942 of unit cell:	Completed after 5 iterations at t[s]:   2321.46
	Linear fluid (dielectric constant: 78.4, screening length: 5.74355 Bohr) occupying 0.619441 of unit cell:	Completed after 6 iterations at t[s]:   2333.47
	FillingsUpdate:  mu: -0.068887767  nElectrons: 130.000000  magneticMoment: [ Abs: 0.00077  Tot: -0.00013 ]
	SubspaceRotationAdjust: set factor to 0.63
ElecMinimize: Iter:   2  F: -206.960998628880787  |grad|_K:  1.289e-06  alpha:  1.403e+00  linmin: -6.362e-05  t[s]:   2346.55
	Linear fluid (dielectric constant: 78.4, screening length: 5.74355 Bohr) occupying 0.622786 of unit cell:	Completed after 8 iterations at t[s]:   2356.98
	Linear fluid (dielectric constant: 78.4, screening length: 5.74355 Bohr) occupying 0.622228 of unit cell:	Completed after 2 iterations at t[s]:   2369.19
	FillingsUpdate:  mu: -0.069287615  nElectrons: 130.000000  magneticMoment: [ Abs: 0.00073  Tot: -0.00013 ]
	SubspaceRotationAdjust: set factor to 0.717
ElecMinimize: Iter:   3  F: -206.961267565436316  |grad|_K:  1.132e-06  alpha:  1.155e+00  linmin: -2.844e-06  t[s]:   2382.92
	Linear fluid (dielectric constant: 78.4, screening length: 5.74355 Bohr) occupying 0.626375 of unit cell:	Completed after 7 iterations at t[s]:   2393.03
	Linear fluid (dielectric constant: 78.4, screening length: 5.74355 Bohr) occupying 0.626342 of unit cell:	Completed after 0 iterations at t[s]:   2404.52
	FillingsUpdate:  mu: -0.069469607  nElectrons: 130.000000  magneticMoment: [ Abs: 0.00043  Tot: -0.00011 ]
	SubspaceRotationAdjust: set factor to 0.611
ElecMinimize: Iter:   4  F: -206.961452601100632  |grad|_K:  9.420e-07  alpha:  1.145e+00  linmin:  3.237e-05  t[s]:   2417.72
	Linear fluid (dielectric constant: 78.4, screening length: 5.74355 Bohr) occupying 0.630932 of unit cell:	Completed after 8 iterations at t[s]:   2428.27
	Linear fluid (dielectric constant: 78.4, screening length: 5.74355 Bohr) occupying 0.628903 of unit cell:	Completed after 8 iterations at t[s]:   2441.52
	FillingsUpdate:  mu: -0.069613334  nElectrons: 130.000000  magneticMoment: [ Abs: 0.00021  Tot: -0.00008 ]
	SubspaceRotationAdjust: set factor to 0.42
ElecMinimize: Iter:   5  F: -206.961562087003983  |grad|_K:  7.403e-07  alpha:  6.146e-01  linmin: -4.949e-04  t[s]:   2455.51
	Linear fluid (dielectric constant: 78.4, screening length: 5.74355 Bohr) occupying 0.631343 of unit cell:	Completed after 8 iterations at t[s]:   2465.37
	Linear fluid (dielectric constant: 78.4, screening length: 5.74355 Bohr) occupying 0.634154 of unit cell:	Completed after 6 iterations at t[s]:   2478.91
ElecMinimize: 	Step increased F by 2.783679e-03, reducing alpha to 1.438719e-01.
	Linear fluid (dielectric constant: 78.4, screening length: 5.74355 Bohr) occupying 0.629482 of unit cell:	Completed after 8 iterations at t[s]:   2503.70
	FillingsUpdate:  mu: -0.069657023  nElectrons: 130.000000  magneticMoment: [ Abs: 0.00018  Tot: -0.00008 ]
	SubspaceRotationAdjust: set factor to 0.291
ElecMinimize: Iter:   6  F: -206.961592166409559  |grad|_K:  5.917e-07  alpha:  1.439e-01  linmin: -9.928e-04  t[s]:   2518.36
	Linear fluid (dielectric constant: 78.4, screening length: 5.74355 Bohr) occupying 0.629999 of unit cell:	Completed after 2 iterations at t[s]:   2528.78
ElecMinimize: 	Predicted alpha/alphaT>3.000000, increasing alphaT to 4.316158e-01.
	Linear fluid (dielectric constant: 78.4, screening length: 5.74355 Bohr) occupying 0.631034 of unit cell:	Completed after 5 iterations at t[s]:   2542.01
ElecMinimize: 	Predicted alpha/alphaT>3.000000, increasing alphaT to 1.294847e+00.
	Linear fluid (dielectric constant: 78.4, screening length: 5.74355 Bohr) occupying 0.634091 of unit cell:	Completed after 8 iterations at t[s]:   2554.95
	Linear fluid (dielectric constant: 78.4, screening length: 5.74355 Bohr) occupying 0.635158 of unit cell:	Completed after 5 iterations at t[s]:   2567.77
	FillingsUpdate:  mu: -0.069806840  nElectrons: 130.000000  magneticMoment: [ Abs: 0.00032  Tot: +0.00001 ]
	SubspaceRotationAdjust: set factor to 0.319
ElecMinimize: Iter:   7  F: -206.961761409047369  |grad|_K:  1.434e-06  alpha:  1.606e+00  linmin:  9.613e-06  t[s]:   2581.23
	Linear fluid (dielectric constant: 78.4, screening length: 5.74355 Bohr) occupying 0.715914 of unit cell:	Completed after 11 iterations at t[s]:   2592.16
	Linear fluid (dielectric constant: 78.4, screening length: 5.74355 Bohr) occupying 0.635182 of unit cell:	Completed after 14 iterations at t[s]:   2606.04
	FillingsUpdate:  mu: -0.069807992  nElectrons: 130.000000  magneticMoment: [ Abs: 0.00032  Tot: +0.00001 ]
	SubspaceRotationAdjust: set factor to 0.346
ElecMinimize: Iter:   8  F: -206.961761915353463  |grad|_K:  1.442e-06  alpha:  1.153e-03  linmin: -6.084e-05  t[s]:   2619.40
	Linear fluid (dielectric constant: 78.4, screening length: 5.74355 Bohr) occupying 0.635207 of unit cell:	Completed after 0 iterations at t[s]:   2627.88
ElecMinimize: 	Predicted alpha/alphaT>3.000000, increasing alphaT to 3.459665e-03.
	Linear fluid (dielectric constant: 78.4, screening length: 5.74355 Bohr) occupying 0.635257 of unit cell:	Completed after 0 iterations at t[s]:   2638.88
ElecMinimize: 	Predicted alpha/alphaT>3.000000, increasing alphaT to 1.037900e-02.
	Linear fluid (dielectric constant: 78.4, screening length: 5.74355 Bohr) occupying 0.635407 of unit cell:	Completed after 2 iterations at t[s]:   2650.24
ElecMinimize: 	Predicted alpha/alphaT>3.000000, increasing alphaT to 3.113699e-02.
	Linear fluid (dielectric constant: 78.4, screening length: 5.74355 Bohr) occupying 0.642817 of unit cell:	Completed after 11 iterations at t[s]:   2663.16
ElecMinimize: 	Step increased F by 7.202521e-03, reducing alpha to 4.368711e-02.
	Linear fluid (dielectric constant: 78.4, screening length: 5.74355 Bohr) occupying 0.636125 of unit cell:	Completed after 10 iterations at t[s]:   2685.34
	FillingsUpdate:  mu: -0.069850380  nElectrons: 130.000000  magneticMoment: [ Abs: 0.00039  Tot: +0.00004 ]
	SubspaceRotationAdjust: set factor to 0.383
ElecMinimize: Iter:   9  F: -206.961801642320665  |grad|_K:  1.452e-06  alpha:  4.369e-02  linmin: -1.241e-04  t[s]:   2699.25
	Linear fluid (dielectric constant: 78.4, screening length: 5.74355 Bohr) occupying 0.637101 of unit cell:	Completed after 5 iterations at t[s]:   2709.11
ElecMinimize: 	Predicted alpha/alphaT>3.000000, increasing alphaT to 1.310613e-01.
	Linear fluid (dielectric constant: 78.4, screening length: 5.74355 Bohr) occupying 0.638982 of unit cell:	Completed after 6 iterations at t[s]:   2721.36
	Linear fluid (dielectric constant: 78.4, screening length: 5.74355 Bohr) occupying 0.639137 of unit cell:	Completed after 1 iterations at t[s]:   2733.08
	FillingsUpdate:  mu: -0.070042573  nElectrons: 130.000000  magneticMoment: [ Abs: 0.00089  Tot: +0.00075 ]
	SubspaceRotationAdjust: set factor to 0.252
ElecMinimize: Iter:  10  F: -206.961889962754327  |grad|_K:  2.089e-06  alpha:  1.385e-01  linmin:  2.928e-04  t[s]:   2745.81
ElecMinimize: 	Bad step direction: g.d > 0.
ElecMinimize: 	Undoing step.
	Linear fluid (dielectric constant: 78.4, screening length: 5.74355 Bohr) occupying 0.639137 of unit cell:	Completed after 0 iterations at t[s]:   2754.42
ElecMinimize: 	Step failed: resetting search direction.
	FillingsUpdate:  mu: -0.070042573  nElectrons: 130.000000  magneticMoment: [ Abs: 0.00089  Tot: +0.00075 ]
	SubspaceRotationAdjust: set factor to 0.187
ElecMinimize: Iter:  11  F: -206.961889962756061  |grad|_K:  1.799e-06  alpha:  0.000e+00
	Linear fluid (dielectric constant: 78.4, screening length: 5.74355 Bohr) occupying 0.639211 of unit cell:	Completed after 2 iterations at t[s]:   2776.18
	Linear fluid (dielectric constant: 78.4, screening length: 5.74355 Bohr) occupying 0.639274 of unit cell:	Completed after 1 iterations at t[s]:   2787.78
	FillingsUpdate:  mu: -0.070065782  nElectrons: 130.000000  magneticMoment: [ Abs: 0.00059  Tot: +0.00021 ]
	SubspaceRotationAdjust: set factor to 0.22
ElecMinimize: Iter:  12  F: -206.962014766007144  |grad|_K:  8.121e-07  alpha:  2.651e-01  linmin: -1.642e-03  t[s]:   2800.90
	Linear fluid (dielectric constant: 78.4, screening length: 5.74355 Bohr) occupying 0.639394 of unit cell:	Completed after 2 iterations at t[s]:   2810.01
	Linear fluid (dielectric constant: 78.4, screening length: 5.74355 Bohr) occupying 0.639474 of unit cell:	Completed after 2 iterations at t[s]:   2821.96
	FillingsUpdate:  mu: -0.070094315  nElectrons: 130.000000  magneticMoment: [ Abs: 0.00051  Tot: +0.00010 ]
	SubspaceRotationAdjust: set factor to 0.293
ElecMinimize: Iter:  13  F: -206.962069350216325  |grad|_K:  4.762e-07  alpha:  4.429e-01  linmin: -7.536e-04  t[s]:   2834.82
	Linear fluid (dielectric constant: 78.4, screening length: 5.74355 Bohr) occupying 0.639712 of unit cell:	Completed after 2 iterations at t[s]:   2844.24
ElecMinimize: 	Predicted alpha/alphaT>3.000000, increasing alphaT to 1.328592e+00.
	Linear fluid (dielectric constant: 78.4, screening length: 5.74355 Bohr) occupying 0.640188 of unit cell:	Completed after 2 iterations at t[s]:   2855.78
	Linear fluid (dielectric constant: 78.4, screening length: 5.74355 Bohr) occupying 0.640320 of unit cell:	Completed after 2 iterations at t[s]:   2867.18
	FillingsUpdate:  mu: -0.070183246  nElectrons: 130.000000  magneticMoment: [ Abs: 0.00032  Tot: +0.00003 ]
	SubspaceRotationAdjust: set factor to 0.352
ElecMinimize: Iter:  14  F: -206.962131308399051  |grad|_K:  5.832e-07  alpha:  1.576e+00  linmin: -4.042e-05  t[s]:   2880.58
	Linear fluid (dielectric constant: 78.4, screening length: 5.74355 Bohr) occupying 0.642326 of unit cell:	Completed after 7 iterations at t[s]:   2890.53
	Linear fluid (dielectric constant: 78.4, screening length: 5.74355 Bohr) occupying 0.641882 of unit cell:	Completed after 3 iterations at t[s]:   2902.11
	FillingsUpdate:  mu: -0.070309057  nElectrons: 130.000000  magneticMoment: [ Abs: 0.00015  Tot: -0.00009 ]
	SubspaceRotationAdjust: set factor to 0.433
ElecMinimize: Iter:  15  F: -206.962188668935397  |grad|_K:  5.542e-07  alpha:  1.225e+00  linmin:  6.597e-06  t[s]:   2915.33
	Linear fluid (dielectric constant: 78.4, screening length: 5.74355 Bohr) occupying 0.643939 of unit cell:	Completed after 7 iterations at t[s]:   2925.29
	Linear fluid (dielectric constant: 78.4, screening length: 5.74355 Bohr) occupying 0.643020 of unit cell:	Completed after 4 iterations at t[s]:   2937.54
	FillingsUpdate:  mu: -0.070387028  nElectrons: 130.000000  magneticMoment: [ Abs: 0.00029  Tot: -0.00018 ]
	SubspaceRotationAdjust: set factor to 0.558
ElecMinimize: Iter:  16  F: -206.962216254900255  |grad|_K:  4.849e-07  alpha:  6.774e-01  linmin: -1.986e-05  t[s]:   2950.57
	Linear fluid (dielectric constant: 78.4, screening length: 5.74355 Bohr) occupying 0.644261 of unit cell:	Completed after 4 iterations at t[s]:   2959.94
	Linear fluid (dielectric constant: 78.4, screening length: 5.74355 Bohr) occupying 0.644226 of unit cell:	Completed after 0 iterations at t[s]:   2971.12
	FillingsUpdate:  mu: -0.070478274  nElectrons: 130.000000  magneticMoment: [ Abs: 0.00039  Tot: -0.00025 ]
	SubspaceRotationAdjust: set factor to 0.722
ElecMinimize: Iter:  17  F: -206.962236273627070  |grad|_K:  4.854e-07  alpha:  6.580e-01  linmin:  5.356e-05  t[s]:   2983.49
	Linear fluid (dielectric constant: 78.4, screening length: 5.74355 Bohr) occupying 0.645728 of unit cell:	Completed after 5 iterations at t[s]:   2993.11
	Linear fluid (dielectric constant: 78.4, screening length: 5.74355 Bohr) occupying 0.645177 of unit cell:	Completed after 2 iterations at t[s]:   3004.88
	FillingsUpdate:  mu: -0.070557356  nElectrons: 130.000000  magneticMoment: [ Abs: 0.00039  Tot: -0.00026 ]
	SubspaceRotationAdjust: set factor to 0.725
ElecMinimize: Iter:  18  F: -206.962248243392736  |grad|_K:  4.715e-07  alpha:  4.149e-01  linmin: -4.500e-06  t[s]:   3017.58
	Linear fluid (dielectric constant: 78.4, screening length: 5.74355 Bohr) occupying 0.646186 of unit cell:	Completed after 2 iterations at t[s]:   3026.57
	Linear fluid (dielectric constant: 78.4, screening length: 5.74355 Bohr) occupying 0.646070 of unit cell:	Completed after 1 iterations at t[s]:   3037.95
	FillingsUpdate:  mu: -0.070638646  nElectrons: 130.000000  magneticMoment: [ Abs: 0.00030  Tot: -0.00023 ]
	SubspaceRotationAdjust: set factor to 0.759
ElecMinimize: Iter:  19  F: -206.962258524701099  |grad|_K:  4.281e-07  alpha:  3.666e-01  linmin:  4.643e-06  t[s]:   3051.27
	Linear fluid (dielectric constant: 78.4, screening length: 5.74355 Bohr) occupying 0.646792 of unit cell:	Completed after 3 iterations at t[s]:   3060.84
	Linear fluid (dielectric constant: 78.4, screening length: 5.74355 Bohr) occupying 0.646719 of unit cell:	Completed after 0 iterations at t[s]:   3071.55
	FillingsUpdate:  mu: -0.070700945  nElectrons: 130.000000  magneticMoment: [ Abs: 0.00023  Tot: -0.00017 ]
	SubspaceRotationAdjust: set factor to 1.03
ElecMinimize: Iter:  20  F: -206.962265991842173  |grad|_K:  3.762e-07  alpha:  3.286e-01  linmin:  2.204e-06  t[s]:   3084.63
	Linear fluid (dielectric constant: 78.4, screening length: 5.74355 Bohr) occupying 0.647134 of unit cell:	Completed after 5 iterations at t[s]:   3094.13
	Linear fluid (dielectric constant: 78.4, screening length: 5.74355 Bohr) occupying 0.647075 of unit cell:	Completed after 0 iterations at t[s]:   3105.60
	FillingsUpdate:  mu: -0.070740141  nElectrons: 130.000000  magneticMoment: [ Abs: 0.00019  Tot: -0.00013 ]
	SubspaceRotationAdjust: set factor to 1.19
ElecMinimize: Iter:  21  F: -206.962270930368788  |grad|_K:  3.292e-07  alpha:  2.824e-01  linmin: -2.068e-06  t[s]:   3118.76
	Linear fluid (dielectric constant: 78.4, screening length: 5.74355 Bohr) occupying 0.647202 of unit cell:	Completed after 3 iterations at t[s]:   3127.71
	Linear fluid (dielectric constant: 78.4, screening length: 5.74355 Bohr) occupying 0.647208 of unit cell:	Completed after 0 iterations at t[s]:   3139.03
	FillingsUpdate:  mu: -0.070754330  nElectrons: 130.000000  magneticMoment: [ Abs: 0.00016  Tot: -0.00009 ]
	SubspaceRotationAdjust: set factor to 0.987
ElecMinimize: Iter:  22  F: -206.962274974019124  |grad|_K:  3.073e-07  alpha:  2.956e-01  linmin: -1.689e-05  t[s]:   3152.27
	Linear fluid (dielectric constant: 78.4, screening length: 5.74355 Bohr) occupying 0.647121 of unit cell:	Completed after 5 iterations at t[s]:   3162.15
	Linear fluid (dielectric constant: 78.4, screening length: 5.74355 Bohr) occupying 0.647106 of unit cell:	Completed after 0 iterations at t[s]:   3173.57
	FillingsUpdate:  mu: -0.070749304  nElectrons: 130.000000  magneticMoment: [ Abs: 0.00015  Tot: -0.00004 ]
	SubspaceRotationAdjust: set factor to 0.759
ElecMinimize: Iter:  23  F: -206.962279287188522  |grad|_K:  2.788e-07  alpha:  3.483e-01  linmin: -3.885e-05  t[s]:   3186.22
	Linear fluid (dielectric constant: 78.4, screening length: 5.74355 Bohr) occupying 0.646838 of unit cell:	Completed after 2 iterations at t[s]:   3195.02
	Linear fluid (dielectric constant: 78.4, screening length: 5.74355 Bohr) occupying 0.646769 of unit cell:	Completed after 0 iterations at t[s]:   3206.19
	FillingsUpdate:  mu: -0.070720429  nElectrons: 130.000000  magneticMoment: [ Abs: 0.00014  Tot: +0.00002 ]
	SubspaceRotationAdjust: set factor to 0.742
ElecMinimize: Iter:  24  F: -206.962283877577107  |grad|_K:  2.338e-07  alpha:  4.372e-01  linmin: -1.775e-05  t[s]:   3218.99
	Linear fluid (dielectric constant: 78.4, screening length: 5.74355 Bohr) occupying 0.646404 of unit cell:	Completed after 2 iterations at t[s]:   3228.26
	Linear fluid (dielectric constant: 78.4, screening length: 5.74355 Bohr) occupying 0.646389 of unit cell:	Completed after 0 iterations at t[s]:   3239.14
	FillingsUpdate:  mu: -0.070690774  nElectrons: 130.000000  magneticMoment: [ Abs: 0.00013  Tot: +0.00006 ]
	SubspaceRotationAdjust: set factor to 1.09
ElecMinimize: Iter:  25  F: -206.962287116558031  |grad|_K:  1.974e-07  alpha:  4.555e-01  linmin: -7.325e-06  t[s]:   3252.45
	Linear fluid (dielectric constant: 78.4, screening length: 5.74355 Bohr) occupying 0.646048 of unit cell:	Completed after 2 iterations at t[s]:   3261.35
	Linear fluid (dielectric constant: 78.4, screening length: 5.74355 Bohr) occupying 0.646049 of unit cell:	Completed after 0 iterations at t[s]:   3272.14
	FillingsUpdate:  mu: -0.070661923  nElectrons: 130.000000  magneticMoment: [ Abs: 0.00013  Tot: +0.00009 ]
	SubspaceRotationAdjust: set factor to 1.38
ElecMinimize: Iter:  26  F: -206.962289372001919  |grad|_K:  1.682e-07  alpha:  4.537e-01  linmin:  1.307e-06  t[s]:   3285.29
	Linear fluid (dielectric constant: 78.4, screening length: 5.74355 Bohr) occupying 0.645781 of unit cell:	Completed after 4 iterations at t[s]:   3294.29
	Linear fluid (dielectric constant: 78.4, screening length: 5.74355 Bohr) occupying 0.645852 of unit cell:	Completed after 1 iterations at t[s]:   3305.58
	FillingsUpdate:  mu: -0.070645172  nElectrons: 130.000000  magneticMoment: [ Abs: 0.00013  Tot: +0.00010 ]
	SubspaceRotationAdjust: set factor to 1.64
ElecMinimize: Iter:  27  F: -206.962290544790818  |grad|_K:  1.307e-07  alpha:  3.334e-01  linmin:  2.112e-06  t[s]:   3318.33
	Linear fluid (dielectric constant: 78.4, screening length: 5.74355 Bohr) occupying 0.645755 of unit cell:	Completed after 2 iterations at t[s]:   3327.05
	Linear fluid (dielectric constant: 78.4, screening length: 5.74355 Bohr) occupying 0.645753 of unit cell:	Completed after 0 iterations at t[s]:   3338.27
	FillingsUpdate:  mu: -0.070632332  nElectrons: 130.000000  magneticMoment: [ Abs: 0.00012  Tot: +0.00009 ]
	SubspaceRotationAdjust: set factor to 1.92
ElecMinimize: Iter:  28  F: -206.962291261854261  |grad|_K:  1.192e-07  alpha:  3.373e-01  linmin:  7.049e-06  t[s]:   3350.96
	Linear fluid (dielectric constant: 78.4, screening length: 5.74355 Bohr) occupying 0.645716 of unit cell:	Completed after 1 iterations at t[s]:   3359.95
	Linear fluid (dielectric constant: 78.4, screening length: 5.74355 Bohr) occupying 0.645715 of unit cell:	Completed after 0 iterations at t[s]:   3370.98
	FillingsUpdate:  mu: -0.070631182  nElectrons: 130.000000  magneticMoment: [ Abs: 0.00009  Tot: +0.00007 ]
	SubspaceRotationAdjust: set factor to 1.71
ElecMinimize: Iter:  29  F: -206.962291871487395  |grad|_K:  1.266e-07  alpha:  3.509e-01  linmin: -1.168e-06  t[s]:   3384.37
	Linear fluid (dielectric constant: 78.4, screening length: 5.74355 Bohr) occupying 0.645728 of unit cell:	Completed after 2 iterations at t[s]:   3393.60
	Linear fluid (dielectric constant: 78.4, screening length: 5.74355 Bohr) occupying 0.645726 of unit cell:	Completed after 0 iterations at t[s]:   3404.36
	FillingsUpdate:  mu: -0.070629139  nElectrons: 130.000000  magneticMoment: [ Abs: 0.00004  Tot: +0.00003 ]
	SubspaceRotationAdjust: set factor to 1.77
ElecMinimize: Iter:  30  F: -206.962292486951725  |grad|_K:  1.131e-07  alpha:  3.052e-01  linmin: -2.263e-07  t[s]:   3417.71
	Linear fluid (dielectric constant: 78.4, screening length: 5.74355 Bohr) occupying 0.645773 of unit cell:	Completed after 2 iterations at t[s]:   3427.07
	Linear fluid (dielectric constant: 78.4, screening length: 5.74355 Bohr) occupying 0.645770 of unit cell:	Completed after 0 iterations at t[s]:   3438.02
	FillingsUpdate:  mu: -0.070638563  nElectrons: 130.000000  magneticMoment: [ Abs: 0.00003  Tot: -0.00000 ]
	SubspaceRotationAdjust: set factor to 2.27
ElecMinimize: Iter:  31  F: -206.962292945842734  |grad|_K:  9.893e-08  alpha:  2.865e-01  linmin: -2.123e-06  t[s]:   3451.23
	Linear fluid (dielectric constant: 78.4, screening length: 5.74355 Bohr) occupying 0.645829 of unit cell:	Completed after 0 iterations at t[s]:   3459.62
	Linear fluid (dielectric constant: 78.4, screening length: 5.74355 Bohr) occupying 0.645831 of unit cell:	Completed after 0 iterations at t[s]:   3470.55
	FillingsUpdate:  mu: -0.070646582  nElectrons: 130.000000  magneticMoment: [ Abs: 0.00004  Tot: -0.00003 ]
	SubspaceRotationAdjust: set factor to 2.77
ElecMinimize: Iter:  32  F: -206.962293315658712  |grad|_K:  8.660e-08  alpha:  2.993e-01  linmin: -2.218e-06  t[s]:   3483.31
	Linear fluid (dielectric constant: 78.4, screening length: 5.74355 Bohr) occupying 0.645889 of unit cell:	Completed after 2 iterations at t[s]:   3492.17
	Linear fluid (dielectric constant: 78.4, screening length: 5.74355 Bohr) occupying 0.645881 of unit cell:	Completed after 0 iterations at t[s]:   3503.20
	FillingsUpdate:  mu: -0.070649729  nElectrons: 130.000000  magneticMoment: [ Abs: 0.00006  Tot: -0.00004 ]
	SubspaceRotationAdjust: set factor to 3.13
ElecMinimize: Iter:  33  F: -206.962293552631934  |grad|_K:  7.524e-08  alpha:  2.535e-01  linmin: -5.799e-06  t[s]:   3515.89
	Linear fluid (dielectric constant: 78.4, screening length: 5.74355 Bohr) occupying 0.645912 of unit cell:	Completed after 0 iterations at t[s]:   3524.46
	Linear fluid (dielectric constant: 78.4, screening length: 5.74355 Bohr) occupying 0.645911 of unit cell:	Completed after 0 iterations at t[s]:   3535.22
	FillingsUpdate:  mu: -0.070652490  nElectrons: 130.000000  magneticMoment: [ Abs: 0.00005  Tot: -0.00004 ]
	SubspaceRotationAdjust: set factor to 3.58
ElecMinimize: Iter:  34  F: -206.962293732648675  |grad|_K:  6.484e-08  alpha:  2.461e-01  linmin: -4.448e-07  t[s]:   3548.62
	Linear fluid (dielectric constant: 78.4, screening length: 5.74355 Bohr) occupying 0.645922 of unit cell:	Completed after 1 iterations at t[s]:   3557.92
	Linear fluid (dielectric constant: 78.4, screening length: 5.74355 Bohr) occupying 0.645919 of unit cell:	Completed after 0 iterations at t[s]:   3568.93
	FillingsUpdate:  mu: -0.070654998  nElectrons: 130.000000  magneticMoment: [ Abs: 0.00004  Tot: -0.00003 ]
	SubspaceRotationAdjust: set factor to 3.22
ElecMinimize: Iter:  35  F: -206.962293817790027  |grad|_K:  6.404e-08  alpha:  1.772e-01  linmin: -1.528e-05  t[s]:   3582.17
	Linear fluid (dielectric constant: 78.4, screening length: 5.74355 Bohr) occupying 0.645916 of unit cell:	Completed after 0 iterations at t[s]:   3590.49
	Linear fluid (dielectric constant: 78.4, screening length: 5.74355 Bohr) occupying 0.645916 of unit cell:	Completed after 0 iterations at t[s]:   3601.00
	FillingsUpdate:  mu: -0.070652580  nElectrons: 130.000000  magneticMoment: [ Abs: 0.00002  Tot: -0.00001 ]
	SubspaceRotationAdjust: set factor to 3.22
ElecMinimize: Iter:  36  F: -206.962293920049717  |grad|_K:  5.604e-08  alpha:  1.866e-01  linmin:  1.216e-06  t[s]:   3613.80
	Linear fluid (dielectric constant: 78.4, screening length: 5.74355 Bohr) occupying 0.645909 of unit cell:	Completed after 1 iterations at t[s]:   3622.36
	Linear fluid (dielectric constant: 78.4, screening length: 5.74355 Bohr) occupying 0.645911 of unit cell:	Completed after 0 iterations at t[s]:   3633.68
	FillingsUpdate:  mu: -0.070647303  nElectrons: 130.000000  magneticMoment: [ Abs: 0.00001  Tot: +0.00000 ]
	SubspaceRotationAdjust: set factor to 3.17
ElecMinimize: Iter:  37  F: -206.962293969470011  |grad|_K:  5.086e-08  alpha:  1.395e-01  linmin: -1.339e-05  t[s]:   3646.42
	Linear fluid (dielectric constant: 78.4, screening length: 5.74355 Bohr) occupying 0.645908 of unit cell:	Completed after 0 iterations at t[s]:   3655.44
	Linear fluid (dielectric constant: 78.4, screening length: 5.74355 Bohr) occupying 0.645906 of unit cell:	Completed after 0 iterations at t[s]:   3666.34
	FillingsUpdate:  mu: -0.070646907  nElectrons: 130.000000  magneticMoment: [ Abs: 0.00002  Tot: +0.00001 ]
	SubspaceRotationAdjust: set factor to 2.92
ElecMinimize: Iter:  38  F: -206.962294040729404  |grad|_K:  4.535e-08  alpha:  1.946e-01  linmin: -2.035e-05  t[s]:   3679.65
	Linear fluid (dielectric constant: 78.4, screening length: 5.74355 Bohr) occupying 0.645910 of unit cell:	Completed after 0 iterations at t[s]:   3688.43
	Linear fluid (dielectric constant: 78.4, screening length: 5.74355 Bohr) occupying 0.645910 of unit cell:	Completed after 0 iterations at t[s]:   3699.29
	FillingsUpdate:  mu: -0.070646597  nElectrons: 130.000000  magneticMoment: [ Abs: 0.00003  Tot: +0.00002 ]
	SubspaceRotationAdjust: set factor to 2.74
ElecMinimize: Iter:  39  F: -206.962294102389791  |grad|_K:  4.004e-08  alpha:  2.178e-01  linmin: -2.029e-06  t[s]:   3712.22
	Linear fluid (dielectric constant: 78.4, screening length: 5.74355 Bohr) occupying 0.645922 of unit cell:	Completed after 0 iterations at t[s]:   3720.66
	Linear fluid (dielectric constant: 78.4, screening length: 5.74355 Bohr) occupying 0.645923 of unit cell:	Completed after 0 iterations at t[s]:   3731.37
	FillingsUpdate:  mu: -0.070647503  nElectrons: 130.000000  magneticMoment: [ Abs: 0.00003  Tot: +0.00002 ]
	SubspaceRotationAdjust: set factor to 2.77
ElecMinimize: Iter:  40  F: -206.962294149093367  |grad|_K:  3.650e-08  alpha:  2.305e-01  linmin: -2.612e-07  t[s]:   3743.97
	Linear fluid (dielectric constant: 78.4, screening length: 5.74355 Bohr) occupying 0.645941 of unit cell:	Completed after 1 iterations at t[s]:   3752.93
	Linear fluid (dielectric constant: 78.4, screening length: 5.74355 Bohr) occupying 0.645932 of unit cell:	Completed after 0 iterations at t[s]:   3764.52
	FillingsUpdate:  mu: -0.070649889  nElectrons: 130.000000  magneticMoment: [ Abs: 0.00003  Tot: +0.00002 ]
	SubspaceRotationAdjust: set factor to 2.7
ElecMinimize: Iter:  41  F: -206.962294158419013  |grad|_K:  4.022e-08  alpha:  1.185e-01  linmin: -4.963e-06  t[s]:   3777.62
	Linear fluid (dielectric constant: 78.4, screening length: 5.74355 Bohr) occupying 0.645945 of unit cell:	Completed after 0 iterations at t[s]:   3786.47
	Linear fluid (dielectric constant: 78.4, screening length: 5.74355 Bohr) occupying 0.645950 of unit cell:	Completed after 0 iterations at t[s]:   3797.31
	FillingsUpdate:  mu: -0.070651714  nElectrons: 130.000000  magneticMoment: [ Abs: 0.00002  Tot: +0.00001 ]
	SubspaceRotationAdjust: set factor to 2.46
ElecMinimize: Iter:  42  F: -206.962294194051594  |grad|_K:  3.670e-08  alpha:  1.677e-01  linmin: -3.466e-08  t[s]:   3810.48
	Linear fluid (dielectric constant: 78.4, screening length: 5.74355 Bohr) occupying 0.645964 of unit cell:	Completed after 0 iterations at t[s]:   3819.48
	Linear fluid (dielectric constant: 78.4, screening length: 5.74355 Bohr) occupying 0.645962 of unit cell:	Completed after 0 iterations at t[s]:   3830.40
	FillingsUpdate:  mu: -0.070653125  nElectrons: 130.000000  magneticMoment: [ Abs: 0.00001  Tot: +0.00001 ]
	SubspaceRotationAdjust: set factor to 2.3
ElecMinimize: Iter:  43  F: -206.962294217333948  |grad|_K:  3.222e-08  alpha:  1.437e-01  linmin: -1.200e-05  t[s]:   3843.33
	Linear fluid (dielectric constant: 78.4, screening length: 5.74355 Bohr) occupying 0.645969 of unit cell:	Completed after 1 iterations at t[s]:   3852.41
	Linear fluid (dielectric constant: 78.4, screening length: 5.74355 Bohr) occupying 0.645966 of unit cell:	Completed after 0 iterations at t[s]:   3863.53
	FillingsUpdate:  mu: -0.070652145  nElectrons: 130.000000  magneticMoment: [ Abs: 0.00001  Tot: +0.00000 ]
	SubspaceRotationAdjust: set factor to 2.46
ElecMinimize: Iter:  44  F: -206.962294225130904  |grad|_K:  2.529e-08  alpha:  8.481e-02  linmin: -8.544e-06  t[s]:   3876.84
	Linear fluid (dielectric constant: 78.4, screening length: 5.74355 Bohr) occupying 0.645967 of unit cell:	Completed after 0 iterations at t[s]:   3885.28
	Linear fluid (dielectric constant: 78.4, screening length: 5.74355 Bohr) occupying 0.645969 of unit cell:	Completed after 0 iterations at t[s]:   3896.84
	FillingsUpdate:  mu: -0.070652280  nElectrons: 130.000000  magneticMoment: [ Abs: 0.00001  Tot: -0.00000 ]
	SubspaceRotationAdjust: set factor to 2.6
ElecMinimize: Iter:  45  F: -206.962294244062718  |grad|_K:  2.196e-08  alpha:  2.207e-01  linmin:  1.341e-07  t[s]:   3911.35
	Linear fluid (dielectric constant: 78.4, screening length: 5.74355 Bohr) occupying 0.645967 of unit cell:	Completed after 0 iterations at t[s]:   3920.88
	Linear fluid (dielectric constant: 78.4, screening length: 5.74355 Bohr) occupying 0.645968 of unit cell:	Completed after 0 iterations at t[s]:   3933.22
	FillingsUpdate:  mu: -0.070652825  nElectrons: 130.000000  magneticMoment: [ Abs: 0.00001  Tot: -0.00001 ]
	SubspaceRotationAdjust: set factor to 2.57
ElecMinimize: Iter:  46  F: -206.962294252698797  |grad|_K:  2.066e-08  alpha:  1.663e-01  linmin: -1.753e-05  t[s]:   3947.88
	Linear fluid (dielectric constant: 78.4, screening length: 5.74355 Bohr) occupying 0.645963 of unit cell:	Completed after 0 iterations at t[s]:   3957.60
	Linear fluid (dielectric constant: 78.4, screening length: 5.74355 Bohr) occupying 0.645962 of unit cell:	Completed after 0 iterations at t[s]:   3968.37
	FillingsUpdate:  mu: -0.070652021  nElectrons: 130.000000  magneticMoment: [ Abs: 0.00001  Tot: -0.00001 ]
	SubspaceRotationAdjust: set factor to 2.49
ElecMinimize: Iter:  47  F: -206.962294265868508  |grad|_K:  1.866e-08  alpha:  2.096e-01  linmin:  8.619e-08  t[s]:   3981.66
	Linear fluid (dielectric constant: 78.4, screening length: 5.74355 Bohr) occupying 0.645954 of unit cell:	Completed after 0 iterations at t[s]:   3990.43
	Linear fluid (dielectric constant: 78.4, screening length: 5.74355 Bohr) occupying 0.645954 of unit cell:	Completed after 0 iterations at t[s]:   4001.32
	FillingsUpdate:  mu: -0.070651323  nElectrons: 130.000000  magneticMoment: [ Abs: 0.00001  Tot: -0.00001 ]
	SubspaceRotationAdjust: set factor to 2.32
ElecMinimize: Iter:  48  F: -206.962294274561657  |grad|_K:  1.754e-08  alpha:  1.996e-01  linmin: -6.297e-08  t[s]:   4014.28
	Linear fluid (dielectric constant: 78.4, screening length: 5.74355 Bohr) occupying 0.645945 of unit cell:	Completed after 0 iterations at t[s]:   4022.69
	Linear fluid (dielectric constant: 78.4, screening length: 5.74355 Bohr) occupying 0.645945 of unit cell:	Completed after 0 iterations at t[s]:   4034.38
	FillingsUpdate:  mu: -0.070650860  nElectrons: 130.000000  magneticMoment: [ Abs: 0.00001  Tot: -0.00001 ]
	SubspaceRotationAdjust: set factor to 2.39
ElecMinimize: Iter:  49  F: -206.962294282031479  |grad|_K:  1.536e-08  alpha:  1.938e-01  linmin: -5.152e-09  t[s]:   4047.55
ElecMinimize: Converged (|Delta F|<1.000000e-08 for 2 iters).
Setting wave functions to eigenvectors of Hamiltonian
Single-point solvation energy estimate, DeltaF = -0.102810576197157

# Ionic positions in lattice coordinates:
ion B   0.166670009390625   0.083330014890624   0.500000000000000 1
ion B   0.416670009390625   0.083330014890624   0.500000000000000 1
ion B   0.666670009390625   0.083330014890624   0.500000000000000 1
ion B   0.916670009390625   0.083330014890624   0.500000000000000 1
ion B   0.166670009390625   0.333330014890624   0.500000000000000 1
ion B   0.416670009390625   0.333330014890624   0.500000000000000 1
ion B   0.666670009390625   0.333330014890624   0.500000000000000 1
ion B   0.916670009390625   0.333330014890624   0.500000000000000 1
ion B   0.166670009390625   0.583330014890624   0.500000000000000 1
ion B   0.416670009390625   0.583330014890624   0.500000000000000 1
ion B   0.666670009390625   0.583330014890624   0.500000000000000 1
ion B   0.916670009390625   0.583330014890624   0.500000000000000 1
ion B   0.166670009390625   0.833330014890624   0.500000000000000 1
ion B   0.416670009390625   0.833330014890624   0.500000000000000 1
ion B   0.666670009390625   0.833330014890624   0.500000000000000 1
ion B   0.916670009390625   0.833330014890624   0.500000000000000 1
ion N   0.083330006421875   0.166670017859374   0.500000000000000 1
ion N   0.333330006421875   0.166670017859374   0.500000000000000 1
ion N   0.583330006421875   0.166670017859374   0.500000000000000 1
ion N   0.833330006421875   0.166670017859374   0.500000000000000 1
ion N   0.083330006421875   0.416670017859374   0.500000000000000 1
ion N   0.333330006421875   0.416670017859374   0.500000000000000 1
ion N   0.583330006421875   0.416670017859374   0.500000000000000 1
ion N   0.833330006421875   0.416670017859374   0.500000000000000 1
ion N   0.083330006421875   0.666670017859374   0.500000000000000 1
ion N   0.333330006421875   0.666670017859374   0.500000000000000 1
ion N   0.583330006421875   0.666670017859374   0.500000000000000 1
ion N   0.833330006421875   0.666670017859374   0.500000000000000 1
ion N   0.083330006421875   0.916670017859374   0.500000000000000 1
ion N   0.333330006421875   0.916670017859374   0.500000000000000 1
ion N   0.583330006421875   0.916670017859374   0.500000000000000 1
ion N   0.833330006421875   0.916670017859374   0.500000000000000 1


# Forces in Lattice coordinates:
force B  -0.001542137840163   0.001542137840163  -0.000000000000000 1
force B  -0.001542137840163   0.001542137840163  -0.000000000000000 1
force B  -0.001542137840163   0.001542137840163  -0.000000000000000 1
force B  -0.001542137840163   0.001542137840163   0.000000000000000 1
force B  -0.001542137840163   0.001542137840163   0.000000000000000 1
force B  -0.001542137840163   0.001542137840163   0.000000000000000 1
force B  -0.001542137840163   0.001542137840163  -0.000000000000000 1
force B  -0.001542137840163   0.001542137840163   0.000000000000000 1
force B  -0.001542137840163   0.001542137840163   0.000000000000000 1
force B  -0.001542137840163   0.001542137840163   0.000000000000000 1
force B  -0.001542137840163   0.001542137840163  -0.000000000000000 1
force B  -0.001542137840163   0.001542137840163   0.000000000000000 1
force B  -0.001542137840163   0.001542137840163  -0.000000000000000 1
force B  -0.001542137840163   0.001542137840163  -0.000000000000000 1
force B  -0.001542137840163   0.001542137840163   0.000000000000000 1
force B  -0.001542137840163   0.001542137840163  -0.000000000000000 1
force N   0.001586425967855  -0.001586425967855   0.000000000000000 1
force N   0.001586425967855  -0.001586425967855  -0.000000000000000 1
force N   0.001586425967855  -0.001586425967855  -0.000000000000000 1
force N   0.001586425967855  -0.001586425967855  -0.000000000000000 1
force N   0.001586425967855  -0.001586425967855  -0.000000000000000 1
force N   0.001586425967855  -0.001586425967855  -0.000000000000000 1
force N   0.001586425967855  -0.001586425967855   0.000000000000000 1
force N   0.001586425967855  -0.001586425967855   0.000000000000000 1
force N   0.001586425967855  -0.001586425967855  -0.000000000000000 1
force N   0.001586425967855  -0.001586425967855   0.000000000000000 1
force N   0.001586425967855  -0.001586425967855   0.000000000000000 1
force N   0.001586425967855  -0.001586425967855   0.000000000000000 1
force N   0.001586425967855  -0.001586425967855  -0.000000000000000 1
force N   0.001586425967855  -0.001586425967855  -0.000000000000000 1
force N   0.001586425967855  -0.001586425967855   0.000000000000000 1
force N   0.001586425967855  -0.001586425967855   0.000000000000000 1

# Energy components:
   A_diel =       -0.0974593682640047
   Eewald =     1248.1722017259053246
       EH =     1417.5227396329494240
     Eloc =    -2961.3484105078864559
      Enl =       30.1146190154052178
      Exc =      -67.9976384031980956
 Exc_core =        6.8944935515921957
       KE =      119.8019992613419049
  MuShift =       -0.0144518502307635
-------------------------------------
     Etot =     -206.9519069423855342
       TS =        0.0103873396459464
-------------------------------------
        F =     -206.9622942820314790

IonicMinimize: Iter:   0  F: -206.962294282031479  |grad|_K:  5.512e-05  t[s]:   4053.96
IonicMinimize: Converged (|grad|_K<1.000000e-04).

#--- Lowdin population analysis ---
# oxidation-state B +0.475 +0.475 +0.475 +0.475 +0.475 +0.475 +0.475 +0.475 +0.475 +0.475 +0.475 +0.475 +0.475 +0.475 +0.475 +0.475
# magnetic-moments B +0.000 +0.000 +0.000 +0.000 +0.000 +0.000 +0.000 +0.000 +0.000 +0.000 +0.000 +0.000 +0.000 +0.000 +0.000 +0.000
# oxidation-state N -0.406 -0.406 -0.406 -0.406 -0.406 -0.406 -0.406 -0.406 -0.406 -0.406 -0.406 -0.406 -0.406 -0.406 -0.406 -0.406
# magnetic-moments N -0.000 -0.000 -0.000 -0.000 -0.000 -0.000 -0.000 -0.000 -0.000 -0.000 -0.000 -0.000 -0.000 -0.000 -0.000 -0.000


Dumping 'NbTe2.fillings' ... done
Dumping 'NbTe2.wfns' ... done
Dumping 'NbTe2.fluidState' ... done
Dumping 'NbTe2.ionpos' ... done
Dumping 'NbTe2.eigenvals' ... done
End date and time: Tue Jan 26 00:27:26 2021  (Duration: 0-1:07:37.02)
Done!
