
*************** JDFTx 1.5.0  ***************

Start date and time: Tue Feb  2 17:56:56 2021
Executable jdftx_gpu with command-line: -i Charged.in -o Charged.out
Running on hosts (process indices):  amax (0-6)
Divided in process groups (process indices):  0 (0)  1 (1)  2 (2)  3 (3)  4 (4)  5 (5)  6 (6)
gpuInit: Found compatible cuda device 0 'Tesla K80'
gpuInit: Found compatible cuda device 1 'Tesla K80'
gpuInit: Found compatible cuda device 2 'Tesla K80'
gpuInit: Found compatible cuda device 3 'Tesla K80'
gpuInit: Found compatible cuda device 4 'Tesla K80'
gpuInit: Found compatible cuda device 5 'Tesla K80'
gpuInit: Found compatible cuda device 6 'Tesla K80'
gpuInit: Selected device 0
Resource initialization completed at t[s]:      3.42
Run totals: 7 processes, 24 threads, 7 GPUs


Input parsed successfully to the following command list (including defaults):

basis kpoint-dependent
cache-projectors no
coords-type Lattice
core-overlap-check none
coulomb-interaction Slab 001
coulomb-truncation-embed 0.5 0.5 0.5
davidson-band-ratio 1.1
dump End State
dump-name NbTe2.$VAR
elec-cutoff 20
elec-eigen-algo Davidson
elec-ex-corr gga-PBE
elec-initial-magnetization 10.000000 no
elec-smearing Gauss 0.0073499
electronic-minimize  \
	dirUpdateScheme      FletcherReeves \
	linminMethod         DirUpdateRecommended \
	nIterations          200 \
	history              15 \
	knormThreshold       0 \
	energyDiffThreshold  1e-08 \
	nEnergyDiff          2 \
	alphaTstart          1 \
	alphaTmin            1e-10 \
	updateTestStepSize   yes \
	alphaTreduceFactor   0.1 \
	alphaTincreaseFactor 3 \
	nAlphaAdjustMax      3 \
	wolfeEnergy          0.0001 \
	wolfeGradient        0.9 \
	fdTest               no
exchange-regularization WignerSeitzTruncated
fluid LinearPCM 298.000000 1.013250
fluid-anion F- 1 MeanFieldLJ \
	epsBulk 1 \
	pMol 0 \
	epsInf 1 \
	Pvap 0 \
	sigmaBulk 0 \
	Rvdw 2.24877 \
	Res 0 \
	tauNuc 343133
fluid-cation Na+ 1 MeanFieldLJ \
	epsBulk 1 \
	pMol 0 \
	epsInf 1 \
	Pvap 0 \
	sigmaBulk 0 \
	Rvdw 2.19208 \
	Res 0 \
	tauNuc 343133
fluid-ex-corr lda-TF lda-PZ
fluid-gummel-loop 10 1.000000e-05
fluid-minimize  \
	dirUpdateScheme      PolakRibiere \
	linminMethod         DirUpdateRecommended \
	nIterations          400 \
	history              15 \
	knormThreshold       1e-11 \
	energyDiffThreshold  0 \
	nEnergyDiff          2 \
	alphaTstart          1 \
	alphaTmin            1e-10 \
	updateTestStepSize   yes \
	alphaTreduceFactor   0.1 \
	alphaTincreaseFactor 3 \
	nAlphaAdjustMax      6 \
	wolfeEnergy          0.0001 \
	wolfeGradient        0.9 \
	fdTest               no
fluid-solvent H2O 55.338 ScalarEOS \
	epsBulk 78.4 \
	pMol 0.92466 \
	epsInf 1.77 \
	Pvap 1.06736e-10 \
	sigmaBulk 4.62e-05 \
	Rvdw 2.61727 \
	Res 1.42 \
	tauNuc 343133 \
	poleEl 15 7 1
forces-output-coords Positions
initial-state NbTe2.$VAR
ion Ru   0.179098370667149   0.083264720511944   0.492790556483161 1
ion Ru   0.404067475421305   0.083333590134912   0.492706818705851 1
ion Ru   0.673458886620111   0.062095430650835   0.499454846135884 1
ion Ru   0.888338585976878   0.061824085264705   0.499572931065144 1
ion Ru   0.160225854640901   0.356351033521132   0.501427354987162 1
ion Ru   0.392922564780391   0.286010300799853   0.476553824677810 1
ion Ru   0.695827783277369   0.356474092616232   0.501394322409105 1
ion Ru   0.929613464211696   0.358450646822899   0.502430285200906 1
ion Ru   0.176919368028424   0.576598249331352   0.503081149935599 1
ion Ru   0.384256458205384   0.560414902541924   0.510131328990030 1
ion Ru   0.675523364295661   0.560472086823430   0.510301804456609 1
ion Ru   0.898980008528170   0.576688501629008   0.503210315856805 1
ion Ru   0.185741164982819   0.871791402952772   0.497972133451524 1
ion Ru   0.449025039014606   0.848413184845245   0.500117913996304 1
ion Ru   0.668652908550265   0.837829759393590   0.504681442125984 1
ion Ru   0.899102351371815   0.848282045958114   0.500281140261256 1
ion Se   0.013329939340849   0.018397957088663   0.577452186204848 1
ion Se   0.003774403792213   0.011505345233063   0.416228580603571 1
ion Se   0.259276398818180   0.018633829921446   0.590565644819687 1
ion Se   0.254245821944883   0.008672393510211   0.398164483270418 1
ion Se   0.504975790895136   0.018595320692102   0.577285794839421 1
ion Se   0.507683907642826   0.011728733566447   0.416071854802296 1
ion Se   0.745636677662019  -0.008164020408769   0.596534761973283 1
ion Se   0.741393535350485  -0.016935433038070   0.405878430220228 1
ion Se  -0.011143764527667   0.242052881663824   0.577897723322956 1
ion Se  -0.011743943236129   0.244731665971088   0.424492924849345 1
ion Se   0.245050772652926   0.256216780990348   0.569529883818630 1
ion Se   0.223040849878885   0.247888049681977   0.412498275962725 1
ion Se   0.510980988304852   0.256197278947795   0.569568054789102 1
ion Se   0.524976263752035   0.248064739043236   0.412421598037119 1
ion Se   0.753501413095822   0.242455429330985   0.577686148817707 1
ion Se   0.757025591246301   0.245266150818341   0.424448633426508 1
ion Se   0.014235520449512   0.529033156193762   0.585669327082482 1
ion Se   0.013642441055299   0.528198533175267   0.419579898894045 1
ion Se   0.237785654572301   0.496089688219839   0.602770714631804 1
ion Se   0.253383843772511   0.503272832125804   0.407218178568979 1
ion Se   0.502335644487261   0.505570255279401   0.590622595609680 1
ion Se   0.487490595197599   0.475428069117973   0.435358284669832 1
ion Se   0.757534549626049   0.495726333190674   0.602942531824616 1
ion Se   0.749225038511270   0.503475088425945   0.407251960442068 1
ion Se   0.000496785652622   0.765298627515797   0.572300737297562 1
ion Se  -0.003243283652132   0.761226626915945   0.428652686533660 1
ion Se   0.264547905537475   0.765362563405687   0.572096789517251 1
ion Se   0.264141755997004   0.761309657162912   0.428588781736089 1
ion Se   0.496088718815734   0.737145324741610   0.584301004776622 1
ion Se   0.496968684154040   0.725244348176923   0.426057408612470 1
ion Se   0.740634260056233   0.737247716786928   0.584381689797078 1
ion Se   0.727933765120733   0.725322619536835   0.426167733790218 1
ion H   0.547819912459891   0.597597522218060   0.649136056718588 1
ion-species GBRV/$ID_pbe.uspp
ion-width Ecut
ionic-minimize  \
	dirUpdateScheme      L-BFGS \
	linminMethod         DirUpdateRecommended \
	nIterations          500 \
	history              15 \
	knormThreshold       0.0001 \
	energyDiffThreshold  1e-06 \
	nEnergyDiff          2 \
	alphaTstart          1 \
	alphaTmin            1e-10 \
	updateTestStepSize   yes \
	alphaTreduceFactor   0.1 \
	alphaTincreaseFactor 3 \
	nAlphaAdjustMax      3 \
	wolfeEnergy          0.0001 \
	wolfeGradient        0.9 \
	fdTest               no
kpoint   0.000000000000   0.000000000000   0.000000000000  1.00000000000000
kpoint-folding 3 3 1 
latt-move-scale 1 1 1
latt-scale 1.88973 1.88973 1.88973 
lattice Triclinic 13.7858 13.7858 18.1305 90 90 120
lattice-minimize  \
	dirUpdateScheme      L-BFGS \
	linminMethod         DirUpdateRecommended \
	nIterations          0 \
	history              15 \
	knormThreshold       0 \
	energyDiffThreshold  1e-06 \
	nEnergyDiff          2 \
	alphaTstart          1 \
	alphaTmin            1e-10 \
	updateTestStepSize   yes \
	alphaTreduceFactor   0.1 \
	alphaTincreaseFactor 3 \
	nAlphaAdjustMax      3 \
	wolfeEnergy          0.0001 \
	wolfeGradient        0.9 \
	fdTest               no
lcao-params -1 1e-06 0.0073499
pcm-variant CANDLE
spintype z-spin
subspace-rotation-factor 1 yes
symmetries automatic
symmetry-threshold 0.0001
target-mu -0.171252 no




---------- Setting up symmetries ----------

Found 24 point-group symmetries of the bravais lattice
Found 1 space-group symmetries with basis
Applied RMS atom displacement 0 bohrs to make symmetries exact.

---------- Initializing the Grid ----------
R = 
[    26.0514   -13.0257          0  ]
[          0    22.5612          0  ]
[          0          0    34.2617  ]
unit cell volume = 20137.3
G =
[   0.241184   0.139248         -0  ]
[          0   0.278496          0  ]
[          0         -0   0.183388  ]
Minimum fftbox size, Smin = [  108  108  140  ]
Chosen fftbox size, S = [  108  108  140  ]

---------- Exchange Correlation functional ----------
Initalized PBE GGA exchange.
Initalized PBE GGA correlation.

---------- Setting up pseudopotentials ----------
Width of ionic core gaussian charges (only for fluid interactions / plotting) set to 0.397384

Reading pseudopotential file '/home/guoxy/vasp/jdftx-1.5.0/build/pseudopotentials/GBRV/ru_pbe.uspp':
  Title: Ru.  Created by USPP 7.3.6 on 3-2-2014
  Reference state energy: -96.418175.  16 valence electrons in orbitals:
    |400>  occupation: 2  eigenvalue: -3.217242
    |410>  occupation: 6  eigenvalue: -2.111371
    |420>  occupation: 6  eigenvalue: -0.566023
    |500>  occupation: 1  eigenvalue: -0.432692
    |510>  occupation: 0  eigenvalue: -0.257307
  lMax: 2  lLocal: 3  QijEcut: 6
  6 projectors sampled on a log grid with 713 points:
    l: 0  eig: -0.432698  rCut: 1.5
    l: 0  eig: -3.217241  rCut: 1.5
    l: 1  eig: -2.111368  rCut: 1.6
    l: 1  eig: -0.257311  rCut: 1.6
    l: 2  eig: -0.566022  rCut: 1.75
    l: 2  eig: 0.000000  rCut: 1.75
  Partial core density with radius 1.1
  Transforming core density to a uniform radial grid of dG=0.02 with 1457 points.
  Transforming local potential to a uniform radial grid of dG=0.02 with 1457 points.
  Transforming nonlocal projectors to a uniform radial grid of dG=0.02 with 432 points.
  Transforming density augmentations to a uniform radial grid of dG=0.02 with 1457 points.
  Transforming atomic orbitals to a uniform radial grid of dG=0.02 with 432 points.
  Core radius for overlap checks: 1.75 bohrs.

Reading pseudopotential file '/home/guoxy/vasp/jdftx-1.5.0/build/pseudopotentials/GBRV/se_pbe.uspp':
  Title: Se.  Created by USPP 7.3.6 on 14-9-2013
  Reference state energy: -21.672887.  6 valence electrons in orbitals:
    |400>  occupation: 2  eigenvalue: -0.635284
    |410>  occupation: 4  eigenvalue: -0.239295
  lMax: 2  lLocal: 3  QijEcut: 5
  6 projectors sampled on a log grid with 625 points:
    l: 0  eig: -0.635278  rCut: 1.5
    l: 0  eig: 0.500000  rCut: 1.5
    l: 1  eig: -0.239295  rCut: 1.5
    l: 1  eig: 0.500000  rCut: 1.5
    l: 2  eig: 0.000000  rCut: 1.8
    l: 2  eig: 1.000000  rCut: 1.8
  Partial core density with radius 1.2
  Transforming core density to a uniform radial grid of dG=0.02 with 1457 points.
  Transforming local potential to a uniform radial grid of dG=0.02 with 1457 points.
  Transforming nonlocal projectors to a uniform radial grid of dG=0.02 with 432 points.
  Transforming density augmentations to a uniform radial grid of dG=0.02 with 1457 points.
  Transforming atomic orbitals to a uniform radial grid of dG=0.02 with 432 points.
  Core radius for overlap checks: 1.80 bohrs.

Reading pseudopotential file '/home/guoxy/vasp/jdftx-1.5.0/build/pseudopotentials/GBRV/h_pbe.uspp':
  Title: H.  Created by USPP 7.3.6 on 2-4-15
  Reference state energy: -0.458849.  1 valence electrons in orbitals:
    |100>  occupation: 1  eigenvalue: -0.238595
  lMax: 0  lLocal: 1  QijEcut: 6
  2 projectors sampled on a log grid with 395 points:
    l: 0  eig: -0.238595  rCut: 1.2
    l: 0  eig: 1.000000  rCut: 1.2
  Transforming local potential to a uniform radial grid of dG=0.02 with 1457 points.
  Transforming nonlocal projectors to a uniform radial grid of dG=0.02 with 432 points.
  Transforming density augmentations to a uniform radial grid of dG=0.02 with 1457 points.
  Transforming atomic orbitals to a uniform radial grid of dG=0.02 with 432 points.
  Core radius for overlap checks: 1.20 bohrs.

Initialized 3 species with 49 total atoms.

Folded 1 k-points by 3x3x1 to 9 k-points.

---------- Setting up k-points, bands, fillings ----------
Adding inversion symmetry to k-mesh for non-inversion-symmetric unit cell.
Reduced to 5 k-points under symmetry. 
Computing the number of bands and number of electrons
Calculating initial fillings.
nElectrons: 449.000000   nBands: 337   nStates: 10

----- Setting up reduced wavefunction bases (one per k-point) -----
average nbasis = 86045.667 , ideal nbasis = 86028.008

---------- Setting up coulomb interaction ----------
Fluid mode embedding: using embedded box, but periodic Coulomb kernel.
(Fluid response is responsible for (approximate) separation between periodic images.)
Setting up double-sized grid for truncated Coulomb potentials:
R = 
[    26.0514   -13.0257          0  ]
[          0    22.5612          0  ]
[          0          0    68.5234  ]
unit cell volume = 40274.6
G =
[   0.241184   0.139248         -0  ]
[          0   0.278496          0  ]
[          0         -0  0.0916941  ]
Chosen fftbox size, S = [  108  108  280  ]
Integer grid location selected as the embedding center:
   Grid: [  54  54  70  ]
   Lattice: [  0.5  0.5  0.5  ]
   Cartesian: [  6.51285  11.2806  17.1308  ]
Constructing Wigner-Seitz cell: 8 faces (6 quadrilaterals, 2 hexagons)
Range-separation parameter for embedded mesh potentials due to point charges: 0.624095 bohrs.

Initializing van der Waals corrections
	NOTE: vdW corrections apply only for interactions with fluid.
	Ru:  C6:  427.91 Eh-a0^6  R0: 3.097 a0
	Se:  C6:  219.24 Eh-a0^6  R0: 3.347 a0
	 H:  C6:    2.43 Eh-a0^6  R0: 1.892 a0

---------- Setting up ewald sum ----------
Optimum gaussian width for ewald sums = 7.148600 bohr.
Real space sum over 605 unit cells with max indices [  5  5  2  ]
Reciprocal space sum over 7425 terms with max indices [  7  7  16  ]

---------- Allocating electronic variables ----------
Initializing wave functions:  linear combination of atomic orbitals
Ru pseudo-atom occupations:   s ( 2 0 )  p ( 6 0 )  d ( 8 )
Se pseudo-atom occupations:   s ( 2 )  p ( 4 )
H pseudo-atom occupations:   s ( 1 )
	FillingsUpdate:  mu: -0.171251800  nElectrons: 449.000000  magneticMoment: [ Abs: 0.51584  Tot: +0.38446 ]
LCAOMinimize: Iter:   0  G: -1571.2719898915693193  |grad|_K:  1.660e-02  alpha:  1.000e+00
	FillingsUpdate:  mu: -0.171251800  nElectrons: 449.000000  magneticMoment: [ Abs: 0.84246  Tot: +0.73510 ]
LCAOMinimize: Iter:   1  G: -1696.9872401646971412  |grad|_K:  2.156e-02  alpha:  2.843e-01  linmin: -4.255e-02  cgtest:  1.982e-02  t[s]:    120.70
LCAOMinimize: 	Step increased G by 7.114177e+01, reducing alpha to 8.482430e-03.
	FillingsUpdate:  mu: -0.171251800  nElectrons: 449.000000  magneticMoment: [ Abs: 1.15360  Tot: +0.87737 ]
LCAOMinimize: Iter:   2  G: -1705.1471723146203203  |grad|_K:  2.266e-02  alpha:  8.482e-03  linmin: -8.261e-02  cgtest:  9.148e-01  t[s]:    185.02
LCAOMinimize: 	Wrong curvature in test step, increasing alphaT to 2.544729e-02.
	FillingsUpdate:  mu: -0.171251800  nElectrons: 449.000000  magneticMoment: [ Abs: 1.27475  Tot: +0.95503 ]
LCAOMinimize: Iter:   3  G: -1711.3460614201983390  |grad|_K:  2.151e-02  alpha: -7.227e-01  linmin: -1.988e-01  cgtest:  9.517e-01  t[s]:    221.17
LCAOMinimize: Encountered beta<0, resetting CG.
LCAOMinimize: 	Step increased G by 8.165115e+01, reducing alpha to 2.963473e-02.
	FillingsUpdate:  mu: -0.171251800  nElectrons: 449.000000  magneticMoment: [ Abs: 1.57880  Tot: +1.14924 ]
LCAOMinimize: Iter:   4  G: -1725.8634788153940463  |grad|_K:  1.626e-02  alpha:  2.963e-02  linmin: -2.685e-01  cgtest:  8.651e-01  t[s]:    284.83
LCAOMinimize: Encountered beta<0, resetting CG.
LCAOMinimize: 	Predicted alpha/alphaT>3.000000, increasing alphaT to 8.890420e-02.
	FillingsUpdate:  mu: -0.171251800  nElectrons: 449.000000  magneticMoment: [ Abs: 3.79357  Tot: +2.73219 ]
LCAOMinimize: Iter:   5  G: -1733.5280884265312125  |grad|_K:  2.463e-02  alpha:  1.452e-01  linmin:  1.858e-01  cgtest: -4.760e-01  t[s]:    332.02
LCAOMinimize: 	Bad step direction: g.d > 0.
LCAOMinimize: 	Undoing step.
LCAOMinimize: 	Step failed: resetting search direction.
	FillingsUpdate:  mu: -0.171251800  nElectrons: 449.000000  magneticMoment: [ Abs: 3.79357  Tot: +2.73219 ]
LCAOMinimize: Iter:   6  G: -1733.5280884265312125  |grad|_K:  2.463e-02  alpha:  0.000e+00
	FillingsUpdate:  mu: -0.171251800  nElectrons: 449.000000  magneticMoment: [ Abs: 2.75741  Tot: +1.30425 ]
LCAOMinimize: Iter:   7  G: -1747.2290532760187034  |grad|_K:  5.846e-03  alpha:  5.391e-02  linmin:  2.647e-01  cgtest: -1.248e+00  t[s]:    395.37
LCAOMinimize: 	Bad step direction: g.d > 0.
LCAOMinimize: 	Undoing step.
LCAOMinimize: 	Step failed: resetting search direction.
	FillingsUpdate:  mu: -0.171251800  nElectrons: 449.000000  magneticMoment: [ Abs: 2.75741  Tot: +1.30425 ]
LCAOMinimize: Iter:   8  G: -1747.2290532760187034  |grad|_K:  5.846e-03  alpha:  0.000e+00
	FillingsUpdate:  mu: -0.171251800  nElectrons: 449.000000  magneticMoment: [ Abs: 2.75681  Tot: +1.40340 ]
LCAOMinimize: Iter:   9  G: -1748.4194455166696116  |grad|_K:  1.201e-03  alpha:  6.078e-02  linmin: -1.237e-02  cgtest: -3.898e-02  t[s]:    458.66
	FillingsUpdate:  mu: -0.171251800  nElectrons: 449.000000  magneticMoment: [ Abs: 2.64796  Tot: +1.38423 ]
LCAOMinimize: Iter:  10  G: -1748.5020180744947993  |grad|_K:  1.111e-03  alpha:  1.048e-01  linmin:  3.120e-02  cgtest:  5.532e-02  t[s]:    495.49
	FillingsUpdate:  mu: -0.171251800  nElectrons: 449.000000  magneticMoment: [ Abs: 2.23128  Tot: +1.03186 ]
LCAOMinimize: Iter:  11  G: -1748.5931631981618466  |grad|_K:  1.085e-03  alpha:  1.472e-01  linmin:  1.548e-02  cgtest:  7.008e-02  t[s]:    532.36
	FillingsUpdate:  mu: -0.171251800  nElectrons: 449.000000  magneticMoment: [ Abs: 1.95197  Tot: +0.89889 ]
LCAOMinimize: Iter:  12  G: -1748.6509124463241278  |grad|_K:  6.147e-04  alpha:  9.079e-02  linmin: -9.142e-03  cgtest:  1.686e-01  t[s]:    569.15
	FillingsUpdate:  mu: -0.171251800  nElectrons: 449.000000  magneticMoment: [ Abs: 1.74640  Tot: +0.76300 ]
LCAOMinimize: Iter:  13  G: -1748.6733893110513236  |grad|_K:  3.945e-04  alpha:  1.030e-01  linmin:  2.678e-02  cgtest: -1.769e-01  t[s]:    606.63
	FillingsUpdate:  mu: -0.171251800  nElectrons: 449.000000  magneticMoment: [ Abs: 1.56767  Tot: +0.65832 ]
LCAOMinimize: Iter:  14  G: -1748.6811085729307251  |grad|_K:  2.210e-04  alpha:  9.477e-02  linmin:  2.527e-02  cgtest:  1.752e-01  t[s]:    643.45
	FillingsUpdate:  mu: -0.171251800  nElectrons: 449.000000  magneticMoment: [ Abs: 1.47554  Tot: +0.61915 ]
LCAOMinimize: Iter:  15  G: -1748.6831514702814729  |grad|_K:  1.228e-04  alpha:  7.938e-02  linmin: -1.112e-01  cgtest:  4.409e-01  t[s]:    680.67
	FillingsUpdate:  mu: -0.171251800  nElectrons: 449.000000  magneticMoment: [ Abs: 1.39577  Tot: +0.58308 ]
LCAOMinimize: Iter:  16  G: -1748.6840119609043995  |grad|_K:  7.340e-05  alpha:  9.487e-02  linmin: -4.211e-02  cgtest:  6.429e-02  t[s]:    717.69
	FillingsUpdate:  mu: -0.171251800  nElectrons: 449.000000  magneticMoment: [ Abs: 1.35423  Tot: +0.56553 ]
LCAOMinimize: Iter:  17  G: -1748.6840522054990288  |grad|_K:  4.909e-05  alpha:  4.324e-02  linmin: -2.739e-01  cgtest:  8.694e-01  t[s]:    754.49
LCAOMinimize: Encountered beta<0, resetting CG.
	FillingsUpdate:  mu: -0.171251800  nElectrons: 449.000000  magneticMoment: [ Abs: 1.32898  Tot: +0.55417 ]
LCAOMinimize: Iter:  18  G: -1748.6840943877391510  |grad|_K:  4.251e-05  alpha:  3.630e-02  linmin: -3.319e-01  cgtest:  9.519e-01  t[s]:    791.60
LCAOMinimize: Encountered beta<0, resetting CG.
	FillingsUpdate:  mu: -0.171251800  nElectrons: 449.000000  magneticMoment: [ Abs: 1.29506  Tot: +0.53869 ]
LCAOMinimize: Iter:  19  G: -1748.6841574234838390  |grad|_K:  3.930e-05  alpha:  4.931e-02  linmin: -3.350e-01  cgtest:  9.892e-01  t[s]:    828.52
LCAOMinimize: Encountered beta<0, resetting CG.
	FillingsUpdate:  mu: -0.171251800  nElectrons: 449.000000  magneticMoment: [ Abs: 1.24863  Tot: +0.51752 ]
LCAOMinimize: Iter:  20  G: -1748.6842342269121673  |grad|_K:  3.599e-05  alpha:  6.919e-02  linmin: -3.328e-01  cgtest:  9.968e-01  t[s]:    865.31
LCAOMinimize: Encountered beta<0, resetting CG.
	FillingsUpdate:  mu: -0.171251800  nElectrons: 449.000000  magneticMoment: [ Abs: 1.19643  Tot: +0.49386 ]
LCAOMinimize: Iter:  21  G: -1748.6843014862395194  |grad|_K:  3.274e-05  alpha:  8.070e-02  linmin: -3.291e-01  cgtest:  9.972e-01  t[s]:    902.42
LCAOMinimize: Encountered beta<0, resetting CG.
	FillingsUpdate:  mu: -0.171251800  nElectrons: 449.000000  magneticMoment: [ Abs: 1.14155  Tot: +0.46909 ]
LCAOMinimize: Iter:  22  G: -1748.6843599199451091  |grad|_K:  2.973e-05  alpha:  8.852e-02  linmin: -3.271e-01  cgtest:  9.975e-01  t[s]:    939.27
LCAOMinimize: Encountered beta<0, resetting CG.
	FillingsUpdate:  mu: -0.171251800  nElectrons: 449.000000  magneticMoment: [ Abs: 1.09162  Tot: +0.44671 ]
LCAOMinimize: Iter:  23  G: -1748.6844007163572314  |grad|_K:  2.728e-05  alpha:  8.444e-02  linmin: -3.269e-01  cgtest:  9.981e-01  t[s]:    976.39
LCAOMinimize: Encountered beta<0, resetting CG.
	FillingsUpdate:  mu: -0.171251800  nElectrons: 449.000000  magneticMoment: [ Abs: 1.04643  Tot: +0.42655 ]
LCAOMinimize: Iter:  24  G: -1748.6844329591713176  |grad|_K:  2.526e-05  alpha:  7.991e-02  linmin: -3.280e-01  cgtest:  9.985e-01  t[s]:   1013.64
LCAOMinimize: Encountered beta<0, resetting CG.
	FillingsUpdate:  mu: -0.171251800  nElectrons: 449.000000  magneticMoment: [ Abs: 1.00973  Tot: +0.41028 ]
LCAOMinimize: Iter:  25  G: -1748.6844535743448432  |grad|_K:  2.373e-05  alpha:  6.773e-02  linmin: -3.301e-01  cgtest:  9.990e-01  t[s]:   1050.77
LCAOMinimize: Encountered beta<0, resetting CG.
	FillingsUpdate:  mu: -0.171251800  nElectrons: 449.000000  magneticMoment: [ Abs: 0.97924  Tot: +0.39682 ]
LCAOMinimize: Iter:  26  G: -1748.6844695068446072  |grad|_K:  2.253e-05  alpha:  5.830e-02  linmin: -3.322e-01  cgtest:  9.993e-01  t[s]:   1087.59
LCAOMinimize: Encountered beta<0, resetting CG.
	FillingsUpdate:  mu: -0.171251800  nElectrons: 449.000000  magneticMoment: [ Abs: 0.95514  Tot: +0.38622 ]
LCAOMinimize: Iter:  27  G: -1748.6844803427402439  |grad|_K:  2.163e-05  alpha:  4.753e-02  linmin: -3.344e-01  cgtest:  9.995e-01  t[s]:   1124.26
LCAOMinimize: Encountered beta<0, resetting CG.
	FillingsUpdate:  mu: -0.171251800  nElectrons: 449.000000  magneticMoment: [ Abs: 0.93615  Tot: +0.37790 ]
LCAOMinimize: Iter:  28  G: -1748.6844882789741860  |grad|_K:  2.094e-05  alpha:  3.841e-02  linmin: -3.363e-01  cgtest:  9.997e-01  t[s]:   1160.86
LCAOMinimize: Encountered beta<0, resetting CG.
	FillingsUpdate:  mu: -0.171251800  nElectrons: 449.000000  magneticMoment: [ Abs: 0.92132  Tot: +0.37141 ]
LCAOMinimize: Iter:  29  G: -1748.6844940541013784  |grad|_K:  2.041e-05  alpha:  3.060e-02  linmin: -3.379e-01  cgtest:  9.998e-01  t[s]:   1197.58
LCAOMinimize: Encountered beta<0, resetting CG.
	FillingsUpdate:  mu: -0.171251800  nElectrons: 449.000000  magneticMoment: [ Abs: 0.90981  Tot: +0.36639 ]
LCAOMinimize: Iter:  30  G: -1748.6844983034966390  |grad|_K:  2.001e-05  alpha:  2.414e-02  linmin: -3.393e-01  cgtest:  9.998e-01  t[s]:   1234.11
LCAOMinimize: Encountered beta<0, resetting CG.
LCAOMinimize: None of the convergence criteria satisfied after 30 iterations.
----- createFluidSolver() ----- (Fluid-side solver setup)
   Initializing fluid molecule 'H2O'
     Initializing site 'O'
       Electron density: proportional to exp(-r/0.36935)*erfc((r-0.51523)/0.36823) with norm 6.826
       Charge density: gaussian nuclear width 0.478731 with net site charge 0.826
       Polarizability: cuspless exponential with width 0.32 and norm 3.73
       Hard sphere radius: 2.57003 bohrs
       Positions in reference frame:
         [ +0.000000 +0.000000 +0.000000 ]
     Initializing site 'H'
       Electron density: proportional to exp(-r/0.34641)*erfc((r-0)/0.390882) with norm 0.587
       Charge density: gaussian nuclear width 0.377945 with net site charge -0.413
       Polarizability: cuspless exponential with width 0.39 and norm 3.3
       Positions in reference frame:
         [ +0.000000 -1.441945 +1.122523 ]
         [ +0.000000 +1.441945 +1.122523 ]
     Net charge: 0   dipole magnitude: 0.927204
     Initializing spherical shell mfKernel with radius 2.61727 Bohr
     deltaS corrections:
       site 'O': -7.54299
       site 'H': -6.83917
   Initializing fluid molecule 'Na+'
     Initializing site 'Na'
       Electron density: proportional to exp(-r/0.19682)*erfc((r-0.71491)/0.41314) with norm 8.1383
       Charge density: gaussian nuclear width 0.365347 with net site charge -1
       Hard sphere radius: 1.86327 bohrs
       Positions in reference frame:
         [ +0.000000 +0.000000 +0.000000 ]
     Net charge: -1   dipole magnitude: 0
     Initializing gaussian mfKernel with width: 1.55004 Bohr
     deltaS corrections:
       site 'Na': -22.3555
   Initializing fluid molecule 'F-'
     Initializing site 'F'
       Electron density: proportional to exp(-r/0.38886)*erfc((r-0)/0.438782) with norm 8
       Charge density: gaussian nuclear width 0.374796 with net site charge 1
       Hard sphere radius: 2.39995 bohrs
       Positions in reference frame:
         [ +0.000000 +0.000000 +0.000000 ]
     Net charge: 1   dipole magnitude: 0
     Initializing gaussian mfKernel with width: 1.59012 Bohr
     deltaS corrections:
       site 'F': -9.04335

Correction to mu due to finite nuclear width = -0.0110615
   Cavity determined by nc: 0.00142 and sigma: 0.707107
   Nonlocal vdW cavity from gaussian model electron density with norm = 8 and sigma = 0.993594 bohr
   Charge asymmetry in cavity with sensitivity pCavity = 36.5 e-bohr/Eh
   Electrostatic cavity expanded by eta = 1.46 bohrs
   Weighted density cavitation model constrained by Nbulk: 0.0049383 bohr^-3, Pvap: 3.14029 kPa, Rvdw: 2.61727 bohr and sigmaBulk: 4.62e-05 Eh/bohr^2 at T: 298 K.
   Weighted density dispersion model using vdW pair potentials with single solvent site with sqrtC6eff: 0.77 SI.


---- Citations for features of the code used in this run ----

   Software package:
      R. Sundararaman, K. Letchworth-Weaver, K.A. Schwarz, D. Gunceler, Y. Ozhabes and T.A. Arias, 'JDFTx: software for joint density-functional theory', SoftwareX 6, 278 (2017)

   gga-PBE exchange-correlation functional:
      J.P. Perdew, K. Burke and M. Ernzerhof, Phys. Rev. Lett. 77, 3865 (1996)

   Pseudopotentials:
      KF Garrity, JW Bennett, KM Rabe and D Vanderbilt, Comput. Mater. Sci. 81, 446 (2014)

   Truncated Coulomb potentials:
      R. Sundararaman and T.A. Arias, Phys. Rev. B 87, 165122 (2013)

   Van der Waals correction pair-potentials:
      S. Grimme, J. Comput. Chem. 27, 1787 (2006)

   Charge-asymmetric nonlocally-determined local-electric (CANDLE) solvation model:
      R. Sundararaman and W.A. Goddard III, J. Chem. Phys. 142, 064107 (2015)

   Total energy minimization with Auxiliary Hamiltonian:
      C. Freysoldt, S. Boeck, and J. Neugebauer, Phys. Rev. B 79, 241103(R) (2009)

   Grand-canonical (fixed-potential) DFT:
      R. Sundararaman, W. A. Goddard III and T. A. Arias, J. Chem. Phys. 146, 114104 (2017)

This list may not be complete. Please suggest additional citations or
report any other bugs at https://github.com/shankar1729/jdftx/issues

Initialization completed successfully at t[s]:   1241.02

Fluid solver invoked on fresh (partially random / LCAO) wavefunctions
Running a vacuum solve first:

-------- Initial electronic minimization -----------
	FillingsUpdate:  mu: -0.101573776  nElectrons: 449.000000  magneticMoment: [ Abs: 0.90981  Tot: +0.36639 ]
ElecMinimize: Iter:   0  G: -1748.692330660164089  |grad|_K:  8.231e-05  alpha:  1.000e+00
	FillingsUpdate:  mu: -0.095251079  nElectrons: 449.000000  magneticMoment: [ Abs: 0.60029  Tot: +0.23163 ]
	SubspaceRotationAdjust: set factor to 0.998
ElecMinimize: Iter:   1  G: -1749.984277251629692  |grad|_K:  6.147e-05  alpha:  6.531e-01  linmin:  1.595e-06  t[s]:   1325.42
	FillingsUpdate:  mu: -0.018031036  nElectrons: 449.000000  magneticMoment: [ Abs: 0.43350  Tot: +0.13364 ]
	SubspaceRotationAdjust: set factor to 0.674
ElecMinimize: Iter:   2  G: -1750.243684487763630  |grad|_K:  4.778e-05  alpha:  2.457e-01  linmin:  4.282e-05  t[s]:   1376.69
	FillingsUpdate:  mu: -0.052154431  nElectrons: 449.000000  magneticMoment: [ Abs: 0.30270  Tot: +0.10402 ]
	SubspaceRotationAdjust: set factor to 0.415
ElecMinimize: Iter:   3  G: -1750.409536880686346  |grad|_K:  4.874e-05  alpha:  2.577e-01  linmin:  6.360e-05  t[s]:   1428.42
	FillingsUpdate:  mu: -0.073927699  nElectrons: 449.000000  magneticMoment: [ Abs: 0.21386  Tot: +0.06272 ]
	SubspaceRotationAdjust: set factor to 0.264
ElecMinimize: Iter:   4  G: -1750.482804369465839  |grad|_K:  2.034e-05  alpha:  1.203e-01  linmin:  4.948e-05  t[s]:   1479.22
ElecMinimize: 	Predicted alpha/alphaT>3.000000, increasing alphaT to 3.610302e-01.
	FillingsUpdate:  mu: -0.079528754  nElectrons: 449.000000  magneticMoment: [ Abs: 0.13095  Tot: +0.03259 ]
	SubspaceRotationAdjust: set factor to 0.232
ElecMinimize: Iter:   5  G: -1750.537963847657238  |grad|_K:  1.572e-05  alpha:  4.753e-01  linmin: -1.939e-06  t[s]:   1544.92
	FillingsUpdate:  mu: -0.073611830  nElectrons: 449.000000  magneticMoment: [ Abs: 0.09202  Tot: +0.02026 ]
	SubspaceRotationAdjust: set factor to 0.2
ElecMinimize: Iter:   6  G: -1750.561807457266013  |grad|_K:  9.436e-06  alpha:  3.304e-01  linmin:  4.930e-06  t[s]:   1596.62
	FillingsUpdate:  mu: -0.068105345  nElectrons: 449.000000  magneticMoment: [ Abs: 0.06860  Tot: +0.01318 ]
	SubspaceRotationAdjust: set factor to 0.215
ElecMinimize: Iter:   7  G: -1750.573005750256925  |grad|_K:  6.583e-06  alpha:  4.328e-01  linmin: -6.838e-06  t[s]:   1647.75
	FillingsUpdate:  mu: -0.069742551  nElectrons: 449.000000  magneticMoment: [ Abs: 0.05256  Tot: +0.00903 ]
	SubspaceRotationAdjust: set factor to 0.239
ElecMinimize: Iter:   8  G: -1750.579139910581034  |grad|_K:  4.922e-06  alpha:  4.863e-01  linmin:  2.889e-06  t[s]:   1699.06
	FillingsUpdate:  mu: -0.072822774  nElectrons: 449.000000  magneticMoment: [ Abs: 0.04230  Tot: +0.00678 ]
	SubspaceRotationAdjust: set factor to 0.241
ElecMinimize: Iter:   9  G: -1750.582197414551956  |grad|_K:  3.864e-06  alpha:  4.347e-01  linmin:  2.952e-06  t[s]:   1750.05
	FillingsUpdate:  mu: -0.073131174  nElectrons: 449.000000  magneticMoment: [ Abs: 0.03221  Tot: +0.00491 ]
	SubspaceRotationAdjust: set factor to 0.289
ElecMinimize: Iter:  10  G: -1750.584461500860243  |grad|_K:  3.033e-06  alpha:  5.237e-01  linmin:  1.912e-06  t[s]:   1801.63
	FillingsUpdate:  mu: -0.071687804  nElectrons: 449.000000  magneticMoment: [ Abs: 0.02555  Tot: +0.00387 ]
	SubspaceRotationAdjust: set factor to 0.283
ElecMinimize: Iter:  11  G: -1750.585639579323015  |grad|_K:  2.566e-06  alpha:  4.418e-01  linmin:  1.407e-07  t[s]:   1852.91
	FillingsUpdate:  mu: -0.071772737  nElectrons: 449.000000  magneticMoment: [ Abs: 0.01969  Tot: +0.00304 ]
	SubspaceRotationAdjust: set factor to 0.267
ElecMinimize: Iter:  12  G: -1750.586450905950642  |grad|_K:  1.969e-06  alpha:  4.242e-01  linmin:  1.342e-06  t[s]:   1904.54
	FillingsUpdate:  mu: -0.072458337  nElectrons: 449.000000  magneticMoment: [ Abs: 0.01560  Tot: +0.00252 ]
	SubspaceRotationAdjust: set factor to 0.261
ElecMinimize: Iter:  13  G: -1750.586888266258939  |grad|_K:  1.289e-06  alpha:  3.889e-01  linmin:  1.443e-06  t[s]:   1955.99
	FillingsUpdate:  mu: -0.072143648  nElectrons: 449.000000  magneticMoment: [ Abs: 0.01256  Tot: +0.00215 ]
	SubspaceRotationAdjust: set factor to 0.26
ElecMinimize: Iter:  14  G: -1750.587112815282808  |grad|_K:  9.946e-07  alpha:  4.662e-01  linmin:  1.713e-07  t[s]:   2007.81
	FillingsUpdate:  mu: -0.071997273  nElectrons: 449.000000  magneticMoment: [ Abs: 0.01050  Tot: +0.00189 ]
	SubspaceRotationAdjust: set factor to 0.229
ElecMinimize: Iter:  15  G: -1750.587221607914444  |grad|_K:  7.442e-07  alpha:  3.786e-01  linmin:  2.005e-08  t[s]:   2059.47
	FillingsUpdate:  mu: -0.072207090  nElectrons: 449.000000  magneticMoment: [ Abs: 0.00848  Tot: +0.00162 ]
	SubspaceRotationAdjust: set factor to 0.262
ElecMinimize: Iter:  16  G: -1750.587296034639621  |grad|_K:  5.331e-07  alpha:  4.627e-01  linmin:  9.651e-07  t[s]:   2111.65
	FillingsUpdate:  mu: -0.072308844  nElectrons: 449.000000  magneticMoment: [ Abs: 0.00700  Tot: +0.00140 ]
	SubspaceRotationAdjust: set factor to 0.277
ElecMinimize: Iter:  17  G: -1750.587334469132202  |grad|_K:  4.382e-07  alpha:  4.660e-01  linmin:  3.461e-07  t[s]:   2163.46
	FillingsUpdate:  mu: -0.072234569  nElectrons: 449.000000  magneticMoment: [ Abs: 0.00569  Tot: +0.00119 ]
	SubspaceRotationAdjust: set factor to 0.293
ElecMinimize: Iter:  18  G: -1750.587358362136911  |grad|_K:  3.428e-07  alpha:  4.284e-01  linmin:  1.877e-07  t[s]:   2215.10
	FillingsUpdate:  mu: -0.072178568  nElectrons: 449.000000  magneticMoment: [ Abs: 0.00452  Tot: +0.00097 ]
	SubspaceRotationAdjust: set factor to 0.326
ElecMinimize: Iter:  19  G: -1750.587373591939013  |grad|_K:  2.808e-07  alpha:  4.463e-01  linmin:  3.532e-07  t[s]:   2266.11
	FillingsUpdate:  mu: -0.072256731  nElectrons: 449.000000  magneticMoment: [ Abs: 0.00343  Tot: +0.00075 ]
	SubspaceRotationAdjust: set factor to 0.327
ElecMinimize: Iter:  20  G: -1750.587383935076332  |grad|_K:  2.381e-07  alpha:  4.519e-01  linmin:  4.108e-07  t[s]:   2318.06
	FillingsUpdate:  mu: -0.072278943  nElectrons: 449.000000  magneticMoment: [ Abs: 0.00257  Tot: +0.00057 ]
	SubspaceRotationAdjust: set factor to 0.32
ElecMinimize: Iter:  21  G: -1750.587390198241337  |grad|_K:  1.825e-07  alpha:  3.804e-01  linmin:  1.756e-07  t[s]:   2369.55
	FillingsUpdate:  mu: -0.072240672  nElectrons: 449.000000  magneticMoment: [ Abs: 0.00184  Tot: +0.00040 ]
	SubspaceRotationAdjust: set factor to 0.309
ElecMinimize: Iter:  22  G: -1750.587394237264789  |grad|_K:  1.454e-07  alpha:  4.176e-01  linmin:  3.381e-07  t[s]:   2420.85
	FillingsUpdate:  mu: -0.072228331  nElectrons: 449.000000  magneticMoment: [ Abs: 0.00130  Tot: +0.00027 ]
	SubspaceRotationAdjust: set factor to 0.302
ElecMinimize: Iter:  23  G: -1750.587396644511500  |grad|_K:  1.110e-07  alpha:  3.925e-01  linmin:  1.607e-07  t[s]:   2471.90
	FillingsUpdate:  mu: -0.072229185  nElectrons: 449.000000  magneticMoment: [ Abs: 0.00089  Tot: +0.00017 ]
	SubspaceRotationAdjust: set factor to 0.301
ElecMinimize: Iter:  24  G: -1750.587398131763166  |grad|_K:  8.894e-08  alpha:  4.158e-01  linmin:  1.035e-07  t[s]:   2523.58
	FillingsUpdate:  mu: -0.072226716  nElectrons: 449.000000  magneticMoment: [ Abs: 0.00058  Tot: +0.00009 ]
	SubspaceRotationAdjust: set factor to 0.307
ElecMinimize: Iter:  25  G: -1750.587399045775328  |grad|_K:  7.105e-08  alpha:  3.978e-01  linmin:  1.242e-07  t[s]:   2575.26
	FillingsUpdate:  mu: -0.072209355  nElectrons: 449.000000  magneticMoment: [ Abs: 0.00035  Tot: +0.00003 ]
	SubspaceRotationAdjust: set factor to 0.337
ElecMinimize: Iter:  26  G: -1750.587399660859774  |grad|_K:  5.465e-08  alpha:  4.196e-01  linmin:  1.342e-07  t[s]:   2626.97
	FillingsUpdate:  mu: -0.072200837  nElectrons: 449.000000  magneticMoment: [ Abs: 0.00020  Tot: -0.00001 ]
	SubspaceRotationAdjust: set factor to 0.379
ElecMinimize: Iter:  27  G: -1750.587400044966216  |grad|_K:  4.645e-08  alpha:  4.429e-01  linmin:  7.476e-08  t[s]:   2678.44
	FillingsUpdate:  mu: -0.072205244  nElectrons: 449.000000  magneticMoment: [ Abs: 0.00015  Tot: -0.00003 ]
	SubspaceRotationAdjust: set factor to 0.38
ElecMinimize: Iter:  28  G: -1750.587400280598786  |grad|_K:  3.944e-08  alpha:  3.761e-01  linmin:  1.884e-08  t[s]:   2729.99
	FillingsUpdate:  mu: -0.072205132  nElectrons: 449.000000  magneticMoment: [ Abs: 0.00015  Tot: -0.00004 ]
	SubspaceRotationAdjust: set factor to 0.378
ElecMinimize: Iter:  29  G: -1750.587400431546712  |grad|_K:  3.043e-08  alpha:  3.340e-01  linmin:  4.743e-08  t[s]:   2781.68
	FillingsUpdate:  mu: -0.072204152  nElectrons: 449.000000  magneticMoment: [ Abs: 0.00016  Tot: -0.00005 ]
	SubspaceRotationAdjust: set factor to 0.393
ElecMinimize: Iter:  30  G: -1750.587400539788177  |grad|_K:  2.461e-08  alpha:  4.024e-01  linmin:  6.004e-08  t[s]:   2833.37
	FillingsUpdate:  mu: -0.072203176  nElectrons: 449.000000  magneticMoment: [ Abs: 0.00016  Tot: -0.00005 ]
	SubspaceRotationAdjust: set factor to 0.376
ElecMinimize: Iter:  31  G: -1750.587400603557853  |grad|_K:  1.947e-08  alpha:  3.626e-01  linmin:  2.981e-08  t[s]:   2884.08
	FillingsUpdate:  mu: -0.072206756  nElectrons: 449.000000  magneticMoment: [ Abs: 0.00015  Tot: -0.00004 ]
	SubspaceRotationAdjust: set factor to 0.367
ElecMinimize: Iter:  32  G: -1750.587400642444209  |grad|_K:  1.543e-08  alpha:  3.530e-01  linmin: -1.603e-08  t[s]:   2935.51
	FillingsUpdate:  mu: -0.072210377  nElectrons: 449.000000  magneticMoment: [ Abs: 0.00014  Tot: -0.00004 ]
	SubspaceRotationAdjust: set factor to 0.364
ElecMinimize: Iter:  33  G: -1750.587400667825023  |grad|_K:  1.225e-08  alpha:  3.670e-01  linmin:  3.119e-08  t[s]:   2987.10
	FillingsUpdate:  mu: -0.072210007  nElectrons: 449.000000  magneticMoment: [ Abs: 0.00012  Tot: -0.00003 ]
	SubspaceRotationAdjust: set factor to 0.38
ElecMinimize: Iter:  34  G: -1750.587400684469458  |grad|_K:  9.554e-09  alpha:  3.814e-01  linmin: -5.598e-08  t[s]:   3038.80
	FillingsUpdate:  mu: -0.072210498  nElectrons: 449.000000  magneticMoment: [ Abs: 0.00010  Tot: -0.00002 ]
	SubspaceRotationAdjust: set factor to 0.393
ElecMinimize: Iter:  35  G: -1750.587400694984126  |grad|_K:  8.249e-09  alpha:  3.951e-01  linmin: -2.982e-08  t[s]:   3089.86
	FillingsUpdate:  mu: -0.072211507  nElectrons: 449.000000  magneticMoment: [ Abs: 0.00008  Tot: -0.00002 ]
	SubspaceRotationAdjust: set factor to 0.38
ElecMinimize: Iter:  36  G: -1750.587400701375827  |grad|_K:  6.453e-09  alpha:  3.245e-01  linmin: -4.638e-08  t[s]:   3140.88
	FillingsUpdate:  mu: -0.072212229  nElectrons: 449.000000  magneticMoment: [ Abs: 0.00007  Tot: -0.00001 ]
	SubspaceRotationAdjust: set factor to 0.416
ElecMinimize: Iter:  37  G: -1750.587400706010612  |grad|_K:  5.103e-09  alpha:  3.827e-01  linmin:  1.887e-07  t[s]:   3192.54
ElecMinimize: Converged (|Delta G|<1.000000e-08 for 2 iters).
Setting wave functions to eigenvectors of Hamiltonian
Vacuum energy after initial minimize, F = -1750.587400706010612

Shifting auxilliary hamiltonian by -0.099040 to set nElectrons=449.000000
	Linear fluid (dielectric constant: 78.4, screening length: 5.74355 Bohr) occupying 0.752248 of unit cell:	Completed after 21 iterations at t[s]:   3206.58

-------- Electronic minimization -----------
	Linear fluid (dielectric constant: 78.4, screening length: 5.74355 Bohr) occupying 0.752248 of unit cell:	Completed after 0 iterations at t[s]:   3223.98
	FillingsUpdate:  mu: -0.171251800  nElectrons: 449.000000  magneticMoment: [ Abs: 0.00004  Tot: -0.00001 ]
ElecMinimize: Iter:   0  G: -1750.577292042272802  |grad|_K:  8.266e-06  alpha:  1.000e+00
	Linear fluid (dielectric constant: 78.4, screening length: 5.74355 Bohr) occupying 0.753125 of unit cell:	Completed after 19 iterations at t[s]:   3269.93
	Linear fluid (dielectric constant: 78.4, screening length: 5.74355 Bohr) occupying 0.752383 of unit cell:	Completed after 18 iterations at t[s]:   3293.59
	FillingsUpdate:  mu: -0.171251800  nElectrons: 448.654603  magneticMoment: [ Abs: 0.00004  Tot: -0.00001 ]
	SubspaceRotationAdjust: set factor to 0.267
ElecMinimize: Iter:   1  G: -1750.579660695749681  |grad|_K:  4.410e-06  alpha:  1.331e-01  linmin:  2.563e-03  t[s]:   3321.86
	Linear fluid (dielectric constant: 78.4, screening length: 5.74355 Bohr) occupying 0.752570 of unit cell:	Completed after 8 iterations at t[s]:   3339.37
ElecMinimize: 	Predicted alpha/alphaT>3.000000, increasing alphaT to 3.993143e-01.
	Linear fluid (dielectric constant: 78.4, screening length: 5.74355 Bohr) occupying 0.752937 of unit cell:	Completed after 12 iterations at t[s]:   3359.88
	Linear fluid (dielectric constant: 78.4, screening length: 5.74355 Bohr) occupying 0.753044 of unit cell:	Completed after 6 iterations at t[s]:   3380.87
	FillingsUpdate:  mu: -0.171251800  nElectrons: 448.460395  magneticMoment: [ Abs: 0.00010  Tot: -0.00000 ]
	SubspaceRotationAdjust: set factor to 0.191
ElecMinimize: Iter:   2  G: -1750.582130259416999  |grad|_K:  2.959e-06  alpha:  4.788e-01  linmin:  2.012e-05  t[s]:   3406.64
	Linear fluid (dielectric constant: 78.4, screening length: 5.74355 Bohr) occupying 0.753613 of unit cell:	Completed after 14 iterations at t[s]:   3424.97
	Linear fluid (dielectric constant: 78.4, screening length: 5.74355 Bohr) occupying 0.753621 of unit cell:	Completed after 2 iterations at t[s]:   3445.50
	FillingsUpdate:  mu: -0.171251800  nElectrons: 448.238138  magneticMoment: [ Abs: 0.00018  Tot: -0.00000 ]
	SubspaceRotationAdjust: set factor to 0.143
ElecMinimize: Iter:   3  G: -1750.583365390307335  |grad|_K:  2.247e-06  alpha:  4.860e-01  linmin: -1.876e-04  t[s]:   3469.74
	Linear fluid (dielectric constant: 78.4, screening length: 5.74355 Bohr) occupying 0.754148 of unit cell:	Completed after 14 iterations at t[s]:   3488.18
	Linear fluid (dielectric constant: 78.4, screening length: 5.74355 Bohr) occupying 0.754209 of unit cell:	Completed after 8 iterations at t[s]:   3509.94
	FillingsUpdate:  mu: -0.171251800  nElectrons: 448.245372  magneticMoment: [ Abs: 0.00034  Tot: -0.00000 ]
	SubspaceRotationAdjust: set factor to 0.0887
ElecMinimize: Iter:   4  G: -1750.584174806597503  |grad|_K:  1.315e-06  alpha:  5.430e-01  linmin:  8.059e-06  t[s]:   3535.92
	Linear fluid (dielectric constant: 78.4, screening length: 5.74355 Bohr) occupying 0.754525 of unit cell:	Completed after 11 iterations at t[s]:   3553.90
	Linear fluid (dielectric constant: 78.4, screening length: 5.74355 Bohr) occupying 0.754616 of unit cell:	Completed after 7 iterations at t[s]:   3574.48
	FillingsUpdate:  mu: -0.171251800  nElectrons: 448.163285  magneticMoment: [ Abs: 0.00045  Tot: -0.00000 ]
	SubspaceRotationAdjust: set factor to 0.0753
ElecMinimize: Iter:   5  G: -1750.584527303218692  |grad|_K:  7.271e-07  alpha:  7.008e-01  linmin: -5.599e-05  t[s]:   3599.84
	Linear fluid (dielectric constant: 78.4, screening length: 5.74355 Bohr) occupying 0.754801 of unit cell:	Completed after 8 iterations at t[s]:   3617.53
	Linear fluid (dielectric constant: 78.4, screening length: 5.74355 Bohr) occupying 0.754837 of unit cell:	Completed after 2 iterations at t[s]:   3636.47
	FillingsUpdate:  mu: -0.171251800  nElectrons: 448.157604  magneticMoment: [ Abs: 0.00053  Tot: -0.00000 ]
	SubspaceRotationAdjust: set factor to 0.0944
ElecMinimize: Iter:   6  G: -1750.584657002749509  |grad|_K:  5.655e-07  alpha:  8.406e-01  linmin: -3.997e-06  t[s]:   3661.53
	Linear fluid (dielectric constant: 78.4, screening length: 5.74355 Bohr) occupying 0.754980 of unit cell:	Completed after 9 iterations at t[s]:   3678.84
	Linear fluid (dielectric constant: 78.4, screening length: 5.74355 Bohr) occupying 0.754948 of unit cell:	Completed after 2 iterations at t[s]:   3698.71
	FillingsUpdate:  mu: -0.171251800  nElectrons: 448.163730  magneticMoment: [ Abs: 0.00057  Tot: -0.00000 ]
	SubspaceRotationAdjust: set factor to 0.103
ElecMinimize: Iter:   7  G: -1750.584717608826850  |grad|_K:  4.419e-07  alpha:  6.530e-01  linmin:  3.586e-05  t[s]:   3723.32
	Linear fluid (dielectric constant: 78.4, screening length: 5.74355 Bohr) occupying 0.755010 of unit cell:	Completed after 7 iterations at t[s]:   3740.65
	Linear fluid (dielectric constant: 78.4, screening length: 5.74355 Bohr) occupying 0.755021 of unit cell:	Completed after 3 iterations at t[s]:   3760.02
	FillingsUpdate:  mu: -0.171251800  nElectrons: 448.155051  magneticMoment: [ Abs: 0.00056  Tot: -0.00000 ]
	SubspaceRotationAdjust: set factor to 0.116
ElecMinimize: Iter:   8  G: -1750.584761436296048  |grad|_K:  3.387e-07  alpha:  7.733e-01  linmin: -8.537e-05  t[s]:   3784.76
	Linear fluid (dielectric constant: 78.4, screening length: 5.74355 Bohr) occupying 0.755062 of unit cell:	Completed after 2 iterations at t[s]:   3801.15
	Linear fluid (dielectric constant: 78.4, screening length: 5.74355 Bohr) occupying 0.755064 of unit cell:	Completed after 0 iterations at t[s]:   3818.86
	FillingsUpdate:  mu: -0.171251800  nElectrons: 448.155739  magneticMoment: [ Abs: 0.00050  Tot: -0.00000 ]
	SubspaceRotationAdjust: set factor to 0.136
ElecMinimize: Iter:   9  G: -1750.584789256697832  |grad|_K:  3.153e-07  alpha:  8.249e-01  linmin: -1.770e-05  t[s]:   3842.68
	Linear fluid (dielectric constant: 78.4, screening length: 5.74355 Bohr) occupying 0.755112 of unit cell:	Completed after 7 iterations at t[s]:   3859.91
	Linear fluid (dielectric constant: 78.4, screening length: 5.74355 Bohr) occupying 0.755096 of unit cell:	Completed after 3 iterations at t[s]:   3879.40
	FillingsUpdate:  mu: -0.171251800  nElectrons: 448.159758  magneticMoment: [ Abs: 0.00043  Tot: -0.00000 ]
	SubspaceRotationAdjust: set factor to 0.141
ElecMinimize: Iter:  10  G: -1750.584805030585130  |grad|_K:  2.422e-07  alpha:  5.478e-01  linmin:  2.321e-05  t[s]:   3904.55
	Linear fluid (dielectric constant: 78.4, screening length: 5.74355 Bohr) occupying 0.755125 of unit cell:	Completed after 6 iterations at t[s]:   3921.55
	Linear fluid (dielectric constant: 78.4, screening length: 5.74355 Bohr) occupying 0.755129 of unit cell:	Completed after 0 iterations at t[s]:   3940.31
	FillingsUpdate:  mu: -0.171251800  nElectrons: 448.151134  magneticMoment: [ Abs: 0.00033  Tot: -0.00000 ]
	SubspaceRotationAdjust: set factor to 0.146
ElecMinimize: Iter:  11  G: -1750.584816022578252  |grad|_K:  1.783e-07  alpha:  6.426e-01  linmin: -1.246e-04  t[s]:   3964.53
	Linear fluid (dielectric constant: 78.4, screening length: 5.74355 Bohr) occupying 0.755158 of unit cell:	Completed after 2 iterations at t[s]:   3980.78
	Linear fluid (dielectric constant: 78.4, screening length: 5.74355 Bohr) occupying 0.755156 of unit cell:	Completed after 0 iterations at t[s]:   3998.32
	FillingsUpdate:  mu: -0.171251800  nElectrons: 448.148844  magneticMoment: [ Abs: 0.00024  Tot: -0.00000 ]
	SubspaceRotationAdjust: set factor to 0.171
ElecMinimize: Iter:  12  G: -1750.584821840141558  |grad|_K:  1.465e-07  alpha:  5.953e-01  linmin:  1.246e-05  t[s]:   4022.71
	Linear fluid (dielectric constant: 78.4, screening length: 5.74355 Bohr) occupying 0.755181 of unit cell:	Completed after 3 iterations at t[s]:   4039.29
	Linear fluid (dielectric constant: 78.4, screening length: 5.74355 Bohr) occupying 0.755179 of unit cell:	Completed after 0 iterations at t[s]:   4057.25
	FillingsUpdate:  mu: -0.171251800  nElectrons: 448.148913  magneticMoment: [ Abs: 0.00016  Tot: -0.00000 ]
	SubspaceRotationAdjust: set factor to 0.166
ElecMinimize: Iter:  13  G: -1750.584825218614469  |grad|_K:  1.111e-07  alpha:  5.458e-01  linmin:  1.910e-05  t[s]:   4081.02
	Linear fluid (dielectric constant: 78.4, screening length: 5.74355 Bohr) occupying 0.755197 of unit cell:	Completed after 3 iterations at t[s]:   4097.54
	Linear fluid (dielectric constant: 78.4, screening length: 5.74355 Bohr) occupying 0.755196 of unit cell:	Completed after 0 iterations at t[s]:   4115.10
	FillingsUpdate:  mu: -0.171251800  nElectrons: 448.144384  magneticMoment: [ Abs: 0.00010  Tot: -0.00000 ]
	SubspaceRotationAdjust: set factor to 0.171
ElecMinimize: Iter:  14  G: -1750.584826994388777  |grad|_K:  8.102e-08  alpha:  5.056e-01  linmin: -7.312e-06  t[s]:   4139.38
	Linear fluid (dielectric constant: 78.4, screening length: 5.74355 Bohr) occupying 0.755207 of unit cell:	Completed after 2 iterations at t[s]:   4155.71
	Linear fluid (dielectric constant: 78.4, screening length: 5.74355 Bohr) occupying 0.755207 of unit cell:	Completed after 0 iterations at t[s]:   4173.54
	FillingsUpdate:  mu: -0.171251800  nElectrons: 448.141887  magneticMoment: [ Abs: 0.00007  Tot: -0.00000 ]
	SubspaceRotationAdjust: set factor to 0.201
ElecMinimize: Iter:  15  G: -1750.584827935688509  |grad|_K:  5.139e-08  alpha:  4.894e-01  linmin: -1.235e-05  t[s]:   4197.54
	Linear fluid (dielectric constant: 78.4, screening length: 5.74355 Bohr) occupying 0.755214 of unit cell:	Completed after 0 iterations at t[s]:   4213.39
	Linear fluid (dielectric constant: 78.4, screening length: 5.74355 Bohr) occupying 0.755215 of unit cell:	Completed after 0 iterations at t[s]:   4230.41
	FillingsUpdate:  mu: -0.171251800  nElectrons: 448.140985  magneticMoment: [ Abs: 0.00005  Tot: -0.00000 ]
	SubspaceRotationAdjust: set factor to 0.245
ElecMinimize: Iter:  16  G: -1750.584828424779971  |grad|_K:  4.316e-08  alpha:  6.271e-01  linmin: -4.268e-08  t[s]:   4254.48
	Linear fluid (dielectric constant: 78.4, screening length: 5.74355 Bohr) occupying 0.755224 of unit cell:	Completed after 2 iterations at t[s]:   4270.75
	Linear fluid (dielectric constant: 78.4, screening length: 5.74355 Bohr) occupying 0.755219 of unit cell:	Completed after 0 iterations at t[s]:   4288.55
	FillingsUpdate:  mu: -0.171251800  nElectrons: 448.140953  magneticMoment: [ Abs: 0.00004  Tot: -0.00000 ]
	SubspaceRotationAdjust: set factor to 0.209
ElecMinimize: Iter:  17  G: -1750.584828529640163  |grad|_K:  6.020e-08  alpha:  2.910e-01  linmin:  5.172e-05  t[s]:   4312.82
	Linear fluid (dielectric constant: 78.4, screening length: 5.74355 Bohr) occupying 0.755227 of unit cell:	Completed after 2 iterations at t[s]:   4329.29
	Linear fluid (dielectric constant: 78.4, screening length: 5.74355 Bohr) occupying 0.755223 of unit cell:	Completed after 0 iterations at t[s]:   4347.27
	FillingsUpdate:  mu: -0.171251800  nElectrons: 448.139901  magneticMoment: [ Abs: 0.00003  Tot: -0.00000 ]
	SubspaceRotationAdjust: set factor to 0.359
ElecMinimize: Iter:  18  G: -1750.584828611383955  |grad|_K:  3.017e-08  alpha:  1.391e-01  linmin:  9.799e-06  t[s]:   4371.18
	Linear fluid (dielectric constant: 78.4, screening length: 5.74355 Bohr) occupying 0.755224 of unit cell:	Completed after 0 iterations at t[s]:   4387.04
ElecMinimize: 	Predicted alpha/alphaT>3.000000, increasing alphaT to 4.174017e-01.
	Linear fluid (dielectric constant: 78.4, screening length: 5.74355 Bohr) occupying 0.755227 of unit cell:	Completed after 0 iterations at t[s]:   4403.79
	Linear fluid (dielectric constant: 78.4, screening length: 5.74355 Bohr) occupying 0.755228 of unit cell:	Completed after 0 iterations at t[s]:   4420.72
	FillingsUpdate:  mu: -0.171251800  nElectrons: 448.138019  magneticMoment: [ Abs: 0.00002  Tot: -0.00000 ]
	SubspaceRotationAdjust: set factor to 0.438
ElecMinimize: Iter:  19  G: -1750.584828753855390  |grad|_K:  2.640e-08  alpha:  5.568e-01  linmin:  6.130e-08  t[s]:   4444.69
	Linear fluid (dielectric constant: 78.4, screening length: 5.74355 Bohr) occupying 0.755232 of unit cell:	Completed after 2 iterations at t[s]:   4461.07
	Linear fluid (dielectric constant: 78.4, screening length: 5.74355 Bohr) occupying 0.755229 of unit cell:	Completed after 3 iterations at t[s]:   4479.38
ElecMinimize: 	Step increased G by 1.622109e-07, reducing alpha to 6.570805e-03.
	Linear fluid (dielectric constant: 78.4, screening length: 5.74355 Bohr) occupying 0.755228 of unit cell:	Completed after 0 iterations at t[s]:   4517.48
ElecMinimize: 	Step increased G by 1.274948e-07, reducing alpha to 6.570805e-04.
	Linear fluid (dielectric constant: 78.4, screening length: 5.74355 Bohr) occupying 0.755228 of unit cell:	Completed after 0 iterations at t[s]:   4554.73
ElecMinimize: 	Step increased G by 1.241385e-07, reducing alpha to 6.570805e-05.
ElecMinimize: 	Step failed to reduce G after 3 attempts. Quitting step.
ElecMinimize: 	Undoing step.
	Linear fluid (dielectric constant: 78.4, screening length: 5.74355 Bohr) occupying 0.755228 of unit cell:	Completed after 0 iterations at t[s]:   4591.44
ElecMinimize: 	Step failed: resetting search direction.
	FillingsUpdate:  mu: -0.171251800  nElectrons: 448.138017  magneticMoment: [ Abs: 0.00002  Tot: -0.00000 ]
	SubspaceRotationAdjust: set factor to 0.279
ElecMinimize: Iter:  20  G: -1750.584828629749836  |grad|_K:  6.212e-08  alpha:  6.571e-05
	Linear fluid (dielectric constant: 78.4, screening length: 5.74355 Bohr) occupying 0.755230 of unit cell:	Completed after 6 iterations at t[s]:   4632.24
	Linear fluid (dielectric constant: 78.4, screening length: 5.74355 Bohr) occupying 0.755228 of unit cell:	Completed after 6 iterations at t[s]:   4651.82
	FillingsUpdate:  mu: -0.171251800  nElectrons: 448.139456  magneticMoment: [ Abs: 0.00002  Tot: -0.00000 ]
	SubspaceRotationAdjust: set factor to 0.116
ElecMinimize: Iter:  21  G: -1750.584828723323881  |grad|_K:  2.324e-08  alpha:  1.072e-01  linmin:  3.647e-04  t[s]:   4677.14
	Linear fluid (dielectric constant: 78.4, screening length: 5.74355 Bohr) occupying 0.755229 of unit cell:	Completed after 0 iterations at t[s]:   4692.75
ElecMinimize: 	Predicted alpha/alphaT>3.000000, increasing alphaT to 3.215214e-01.
	Linear fluid (dielectric constant: 78.4, screening length: 5.74355 Bohr) occupying 0.755229 of unit cell:	Completed after 0 iterations at t[s]:   4709.54
	Linear fluid (dielectric constant: 78.4, screening length: 5.74355 Bohr) occupying 0.755229 of unit cell:	Completed after 0 iterations at t[s]:   4726.83
	FillingsUpdate:  mu: -0.171251800  nElectrons: 448.138298  magneticMoment: [ Abs: 0.00002  Tot: -0.00000 ]
	SubspaceRotationAdjust: set factor to 0.204
ElecMinimize: Iter:  22  G: -1750.584828798339231  |grad|_K:  2.012e-08  alpha:  5.886e-01  linmin: -1.925e-08  t[s]:   4750.72
	Linear fluid (dielectric constant: 78.4, screening length: 5.74355 Bohr) occupying 0.755229 of unit cell:	Completed after 3 iterations at t[s]:   4767.24
	Linear fluid (dielectric constant: 78.4, screening length: 5.74355 Bohr) occupying 0.755229 of unit cell:	Completed after 1 iterations at t[s]:   4785.43
ElecMinimize: 	Step increased G by 1.179394e-07, reducing alpha to 8.572046e-03.
	Linear fluid (dielectric constant: 78.4, screening length: 5.74355 Bohr) occupying 0.755229 of unit cell:	Completed after 0 iterations at t[s]:   4823.38
ElecMinimize: 	Step increased G by 9.223822e-08, reducing alpha to 8.572046e-04.
	Linear fluid (dielectric constant: 78.4, screening length: 5.74355 Bohr) occupying 0.755229 of unit cell:	Completed after 0 iterations at t[s]:   4859.90
ElecMinimize: 	Step increased G by 8.978441e-08, reducing alpha to 8.572046e-05.
ElecMinimize: 	Step failed to reduce G after 3 attempts. Quitting step.
ElecMinimize: 	Undoing step.
	Linear fluid (dielectric constant: 78.4, screening length: 5.74355 Bohr) occupying 0.755229 of unit cell:	Completed after 0 iterations at t[s]:   4896.91
ElecMinimize: 	Step failed: resetting search direction.
	FillingsUpdate:  mu: -0.171251800  nElectrons: 448.138295  magneticMoment: [ Abs: 0.00002  Tot: -0.00000 ]
	SubspaceRotationAdjust: set factor to 0.145
ElecMinimize: Iter:  23  G: -1750.584828708605073  |grad|_K:  4.677e-08  alpha:  8.572e-05
	Linear fluid (dielectric constant: 78.4, screening length: 5.74355 Bohr) occupying 0.755230 of unit cell:	Completed after 3 iterations at t[s]:   4937.19
	Linear fluid (dielectric constant: 78.4, screening length: 5.74355 Bohr) occupying 0.755229 of unit cell:	Completed after 2 iterations at t[s]:   4955.72
	FillingsUpdate:  mu: -0.171251800  nElectrons: 448.139355  magneticMoment: [ Abs: 0.00002  Tot: -0.00000 ]
	SubspaceRotationAdjust: set factor to 0.0613
ElecMinimize: Iter:  24  G: -1750.584828748076461  |grad|_K:  1.732e-08  alpha:  1.799e-01  linmin:  8.865e-04  t[s]:   4980.37
	Linear fluid (dielectric constant: 78.4, screening length: 5.74355 Bohr) occupying 0.755229 of unit cell:	Completed after 0 iterations at t[s]:   4996.42
ElecMinimize: 	Predicted alpha/alphaT>3.000000, increasing alphaT to 5.398095e-01.
	Linear fluid (dielectric constant: 78.4, screening length: 5.74355 Bohr) occupying 0.755229 of unit cell:	Completed after 0 iterations at t[s]:   5013.29
	Linear fluid (dielectric constant: 78.4, screening length: 5.74355 Bohr) occupying 0.755230 of unit cell:	Completed after 0 iterations at t[s]:   5030.42
	FillingsUpdate:  mu: -0.171251800  nElectrons: 448.138628  magneticMoment: [ Abs: 0.00001  Tot: -0.00000 ]
	SubspaceRotationAdjust: set factor to 0.0916
ElecMinimize: Iter:  25  G: -1750.584828800209607  |grad|_K:  1.894e-08  alpha:  8.024e-01  linmin:  2.392e-07  t[s]:   5054.67
	Linear fluid (dielectric constant: 78.4, screening length: 5.74355 Bohr) occupying 0.755230 of unit cell:	Completed after 3 iterations at t[s]:   5071.40
	Linear fluid (dielectric constant: 78.4, screening length: 5.74355 Bohr) occupying 0.755230 of unit cell:	Completed after 1 iterations at t[s]:   5089.42
ElecMinimize: 	Step increased G by 9.577411e-08, reducing alpha to 1.132119e-02.
	Linear fluid (dielectric constant: 78.4, screening length: 5.74355 Bohr) occupying 0.755230 of unit cell:	Completed after 0 iterations at t[s]:   5126.62
ElecMinimize: 	Step increased G by 6.826349e-08, reducing alpha to 1.132119e-03.
	Linear fluid (dielectric constant: 78.4, screening length: 5.74355 Bohr) occupying 0.755230 of unit cell:	Completed after 0 iterations at t[s]:   5163.37
ElecMinimize: 	Step increased G by 6.565824e-08, reducing alpha to 1.132119e-04.
ElecMinimize: 	Step failed to reduce G after 3 attempts. Quitting step.
ElecMinimize: 	Undoing step.
	Linear fluid (dielectric constant: 78.4, screening length: 5.74355 Bohr) occupying 0.755230 of unit cell:	Completed after 0 iterations at t[s]:   5200.92
ElecMinimize: 	Step failed: resetting search direction.
	FillingsUpdate:  mu: -0.171251800  nElectrons: 448.138626  magneticMoment: [ Abs: 0.00001  Tot: -0.00000 ]
	SubspaceRotationAdjust: set factor to 0.0818
ElecMinimize: Iter:  26  G: -1750.584828734576377  |grad|_K:  3.429e-08  alpha:  1.132e-04
	Linear fluid (dielectric constant: 78.4, screening length: 5.74355 Bohr) occupying 0.755230 of unit cell:	Completed after 2 iterations at t[s]:   5242.03
	Linear fluid (dielectric constant: 78.4, screening length: 5.74355 Bohr) occupying 0.755230 of unit cell:	Completed after 1 iterations at t[s]:   5259.95
	FillingsUpdate:  mu: -0.171251800  nElectrons: 448.139256  magneticMoment: [ Abs: 0.00001  Tot: -0.00000 ]
	SubspaceRotationAdjust: set factor to 0.0465
	SubspaceRotationAdjust: resetting CG because factor has changed by 0.111582
	Linear fluid (dielectric constant: 78.4, screening length: 5.74355 Bohr) occupying 0.755230 of unit cell:	Completed after 0 iterations at t[s]:   5294.31
ElecMinimize: 	State modified externally: resetting search direction.
ElecMinimize: Iter:  27  G: -1750.584828798311719  |grad|_K:  1.691e-08  alpha:  2.525e-01
	Linear fluid (dielectric constant: 78.4, screening length: 5.74355 Bohr) occupying 0.755230 of unit cell:	Completed after 1 iterations at t[s]:   5334.35
	Linear fluid (dielectric constant: 78.4, screening length: 5.74355 Bohr) occupying 0.755230 of unit cell:	Completed after 0 iterations at t[s]:   5351.83
ElecMinimize: 	Step increased G by 2.493448e-08, reducing alpha to 9.411828e-03.
	Linear fluid (dielectric constant: 78.4, screening length: 5.74355 Bohr) occupying 0.755230 of unit cell:	Completed after 0 iterations at t[s]:   5388.47
ElecMinimize: 	Step increased G by 3.243190e-08, reducing alpha to 9.411828e-04.
	Linear fluid (dielectric constant: 78.4, screening length: 5.74355 Bohr) occupying 0.755230 of unit cell:	Completed after 0 iterations at t[s]:   5425.40
ElecMinimize: 	Step increased G by 3.326340e-08, reducing alpha to 9.411828e-05.
ElecMinimize: 	Step failed to reduce G after 3 attempts. Quitting step.
ElecMinimize: 	Undoing step.
	Linear fluid (dielectric constant: 78.4, screening length: 5.74355 Bohr) occupying 0.755230 of unit cell:	Completed after 0 iterations at t[s]:   5462.19
ElecMinimize: 	Step failed along negative gradient direction.
ElecMinimize: Probably at roundoff error limit. (Stopping)
Setting wave functions to eigenvectors of Hamiltonian
Single-point solvation energy estimate, DeltaG = +0.002571940958433

# Ionic positions in lattice coordinates:
ion Ru   0.179098370667149   0.083264720511944   0.492790556483161 1
ion Ru   0.404067475421305   0.083333590134912   0.492706818705851 1
ion Ru   0.673458886620111   0.062095430650835   0.499454846135884 1
ion Ru   0.888338585976878   0.061824085264705   0.499572931065144 1
ion Ru   0.160225854640901   0.356351033521132   0.501427354987162 1
ion Ru   0.392922564780391   0.286010300799853   0.476553824677810 1
ion Ru   0.695827783277369   0.356474092616232   0.501394322409105 1
ion Ru   0.929613464211696   0.358450646822899   0.502430285200906 1
ion Ru   0.176919368028424   0.576598249331352   0.503081149935599 1
ion Ru   0.384256458205384   0.560414902541924   0.510131328990030 1
ion Ru   0.675523364295661   0.560472086823430   0.510301804456609 1
ion Ru   0.898980008528170   0.576688501629008   0.503210315856805 1
ion Ru   0.185741164982819   0.871791402952772   0.497972133451524 1
ion Ru   0.449025039014606   0.848413184845245   0.500117913996304 1
ion Ru   0.668652908550265   0.837829759393590   0.504681442125984 1
ion Ru   0.899102351371815   0.848282045958114   0.500281140261256 1
ion Se   0.013329939340849   0.018397957088663   0.577452186204848 1
ion Se   0.003774403792213   0.011505345233063   0.416228580603571 1
ion Se   0.259276398818180   0.018633829921446   0.590565644819687 1
ion Se   0.254245821944883   0.008672393510211   0.398164483270418 1
ion Se   0.504975790895136   0.018595320692102   0.577285794839421 1
ion Se   0.507683907642826   0.011728733566447   0.416071854802296 1
ion Se   0.745636677662019  -0.008164020408769   0.596534761973283 1
ion Se   0.741393535350485  -0.016935433038070   0.405878430220228 1
ion Se  -0.011143764527667   0.242052881663824   0.577897723322956 1
ion Se  -0.011743943236129   0.244731665971088   0.424492924849345 1
ion Se   0.245050772652926   0.256216780990348   0.569529883818630 1
ion Se   0.223040849878885   0.247888049681977   0.412498275962725 1
ion Se   0.510980988304852   0.256197278947795   0.569568054789102 1
ion Se   0.524976263752035   0.248064739043236   0.412421598037119 1
ion Se   0.753501413095822   0.242455429330985   0.577686148817707 1
ion Se   0.757025591246301   0.245266150818341   0.424448633426508 1
ion Se   0.014235520449512   0.529033156193762   0.585669327082482 1
ion Se   0.013642441055299   0.528198533175267   0.419579898894045 1
ion Se   0.237785654572301   0.496089688219839   0.602770714631804 1
ion Se   0.253383843772511   0.503272832125804   0.407218178568979 1
ion Se   0.502335644487261   0.505570255279401   0.590622595609680 1
ion Se   0.487490595197599   0.475428069117973   0.435358284669832 1
ion Se   0.757534549626049   0.495726333190674   0.602942531824616 1
ion Se   0.749225038511270   0.503475088425945   0.407251960442068 1
ion Se   0.000496785652622   0.765298627515797   0.572300737297562 1
ion Se  -0.003243283652132   0.761226626915945   0.428652686533660 1
ion Se   0.264547905537475   0.765362563405687   0.572096789517251 1
ion Se   0.264141755997004   0.761309657162912   0.428588781736089 1
ion Se   0.496088718815734   0.737145324741610   0.584301004776622 1
ion Se   0.496968684154040   0.725244348176923   0.426057408612470 1
ion Se   0.740634260056233   0.737247716786928   0.584381689797078 1
ion Se   0.727933765120733   0.725322619536835   0.426167733790218 1
ion H   0.547819912459891   0.597597522218060   0.649136056718588 1


# Forces in Lattice coordinates:
force Ru   0.008046171464622  -0.055908035324265  -0.007338327371789 1
force Ru  -0.012142303662748  -0.042051256156119  -0.008276261225979 1
force Ru  -0.008032094317588  -0.001343808560918  -0.005099295067874 1
force Ru   0.004716859122637  -0.009065082272144  -0.004443651598715 1
force Ru   0.002312681324357   0.032205939529774  -0.006324962457068 1
force Ru   0.004842813274739  -0.098670168208406   0.051350616902044 1
force Ru   0.006777765919624   0.031696614939485  -0.009375614800769 1
force Ru  -0.016419029407499   0.070760891014179   0.013492310621404 1
force Ru   0.000825785103192  -0.044043294497647  -0.011526858000249 1
force Ru  -0.016391055930002   0.013652057515032  -0.012917026067802 1
force Ru   0.020927552911458  -0.004844803412620  -0.013339993827993 1
force Ru   0.004440186539696  -0.051785806082384  -0.010351208790995 1
force Ru  -0.000645572390894   0.051716571383515  -0.008976185940456 1
force Ru  -0.141147795199794   0.069506292844496  -0.004731214863456 1
force Ru   0.003110266375434   0.018662890291244  -0.007172706204900 1
force Ru   0.137320936998956  -0.072931030461880  -0.005363440940867 1
force Se  -0.039331887177336   0.032789780356901   0.047516931839996 1
force Se  -0.037163347775478   0.026875005987069  -0.048254845449568 1
force Se   0.000918958224123  -0.002605986663127   0.014224860544171 1
force Se  -0.001338953234430   0.007287132795101   0.000125840504924 1
force Se   0.043887214015287  -0.010965681189606   0.052096180510271 1
force Se   0.039523257698767  -0.012047275963502  -0.046666249516454 1
force Se   0.001882397431684   0.000980780556167   0.021526730468819 1
force Se   0.003015487282036   0.004463656756941  -0.006435474844457 1
force Se  -0.005620447929723  -0.008807698388694   0.021356911612469 1
force Se  -0.010301946103532  -0.009157069124285  -0.022111322943797 1
force Se  -0.009786315450824   0.021270784511896   0.054375506962653 1
force Se  -0.033904270467566   0.027267839431797  -0.048726314656410 1
force Se   0.008760317272823   0.011043607677945   0.050515359057384 1
force Se   0.023661896513573  -0.006036436725182  -0.042709273364615 1
force Se   0.006380301611592  -0.016342140509774   0.021917569359038 1
force Se   0.005828678126714  -0.017232294047047  -0.014446570431428 1
force Se   0.000273431763213  -0.017503278210384   0.004374238434279 1
force Se   0.004320174451857  -0.004441528852593  -0.010173806474032 1
force Se   0.008342097490054  -0.003604841880787  -0.013769436906099 1
force Se  -0.026178287416299   0.011538363312181   0.005557271445308 1
force Se  -0.000647713216517   0.031627955881820   0.118613742237004 1
force Se   0.000344193216900   0.055660035108775  -0.076071700716657 1
force Se  -0.008995388618759   0.011663378849317  -0.020864532641822 1
force Se   0.028847618239103  -0.014716090255434   0.011799108520528 1
force Se   0.010427636958083  -0.016524169510701   0.011842750446247 1
force Se   0.004823984001421  -0.012440975690561  -0.016938800246643 1
force Se  -0.009829152679483  -0.008730721125510   0.016067710209995 1
force Se  -0.004637602857737  -0.009894487048338  -0.018012418525030 1
force Se   0.031389978587418  -0.008992463297096   0.035822310107568 1
force Se   0.023034420703420   0.004547804381246  -0.029953221893324 1
force Se  -0.036723203971449   0.022154750545058   0.040645737085212 1
force Se  -0.023407730648700   0.026624044869347  -0.030645995609477 1
force H   0.005187289944443  -0.027208779259256  -0.020508720704430 1

# Energy components:
   A_diel =        0.0489311308260987
   Eewald =     8596.0607911536808388
       EH =    10123.1643685921153519
     Eloc =   -21214.1500248360425758
      Enl =      365.9789316984522998
      Exc =     -682.5887254342317192
 Exc_core =      425.1674352793439766
       KE =      559.0202404867700352
  MuShift =        0.0095211513712567
-------------------------------------
     Etot =    -1827.2885307777155504
       TS =        0.0409520924806796
-------------------------------------
        F =    -1827.3294828701962160
      muN =      -76.7446541051440363
-------------------------------------
        G =    -1750.5848287650521797

IonicMinimize: Iter:   0  G: -1750.584828765052180  |grad|_K:  1.153e-03  t[s]:   5501.34

#--- Lowdin population analysis ---
# oxidation-state Ru -0.848 -0.848 -0.852 -0.852 -0.860 -0.896 -0.860 -0.819 -0.847 -0.876 -0.875 -0.847 -0.881 -0.878 -0.830 -0.878
# magnetic-moments Ru +0.000 +0.000 -0.000 -0.000 +0.000 +0.000 -0.000 +0.000 -0.000 -0.000 -0.000 +0.000 +0.000 -0.000 +0.000 -0.000
# oxidation-state Se +0.507 +0.506 +0.504 +0.516 +0.507 +0.505 +0.540 +0.544 +0.549 +0.559 +0.511 +0.540 +0.510 +0.539 +0.550 +0.559 +0.497 +0.494 +0.514 +0.502 +0.482 +0.511 +0.512 +0.501 +0.567 +0.566 +0.568 +0.567 +0.544 +0.523 +0.545 +0.524
# magnetic-moments Se -0.000 -0.000 -0.000 +0.000 -0.000 -0.000 -0.000 -0.000 -0.000 -0.000 -0.000 -0.000 -0.000 -0.000 -0.000 +0.000 +0.000 -0.000 +0.000 +0.000 +0.000 +0.000 +0.000 -0.000 -0.000 -0.000 +0.000 -0.000 +0.000 -0.000 +0.000 -0.000
# oxidation-state H +0.057
# magnetic-moments H -0.000

Shifting auxilliary hamiltonian by -0.000019 to set nElectrons=448.139255
	Linear fluid (dielectric constant: 78.4, screening length: 5.74355 Bohr) occupying 0.755211 of unit cell:	Completed after 6 iterations at t[s]:   5519.27

-------- Electronic minimization -----------
	Linear fluid (dielectric constant: 78.4, screening length: 5.74355 Bohr) occupying 0.755211 of unit cell:	Completed after 0 iterations at t[s]:   5533.96
	FillingsUpdate:  mu: -0.171251800  nElectrons: 448.139255  magneticMoment: [ Abs: 0.00026  Tot: -0.00000 ]
ElecMinimize: Iter:   0  G: -1750.584937402010382  |grad|_K:  2.841e-07  alpha:  1.000e+00
	Linear fluid (dielectric constant: 78.4, screening length: 5.74355 Bohr) occupying 0.755213 of unit cell:	Completed after 3 iterations at t[s]:   5576.73
	Linear fluid (dielectric constant: 78.4, screening length: 5.74355 Bohr) occupying 0.755212 of unit cell:	Completed after 2 iterations at t[s]:   5595.26
	FillingsUpdate:  mu: -0.171251800  nElectrons: 448.138173  magneticMoment: [ Abs: 0.00029  Tot: -0.00000 ]
	SubspaceRotationAdjust: set factor to 0.0644
ElecMinimize: Iter:   1  G: -1750.584953426706761  |grad|_K:  1.604e-07  alpha:  6.840e-01  linmin:  9.285e-05  t[s]:   5619.55
	Linear fluid (dielectric constant: 78.4, screening length: 5.74355 Bohr) occupying 0.755213 of unit cell:	Completed after 2 iterations at t[s]:   5635.88
	Linear fluid (dielectric constant: 78.4, screening length: 5.74355 Bohr) occupying 0.755213 of unit cell:	Completed after 0 iterations at t[s]:   5653.63
	FillingsUpdate:  mu: -0.171251800  nElectrons: 448.137114  magneticMoment: [ Abs: 0.00031  Tot: -0.00000 ]
	SubspaceRotationAdjust: set factor to 0.0844
ElecMinimize: Iter:   2  G: -1750.584960277951041  |grad|_K:  1.671e-07  alpha:  9.108e-01  linmin: -4.064e-04  t[s]:   5677.68
	Linear fluid (dielectric constant: 78.4, screening length: 5.74355 Bohr) occupying 0.755215 of unit cell:	Completed after 2 iterations at t[s]:   5694.32
	Linear fluid (dielectric constant: 78.4, screening length: 5.74355 Bohr) occupying 0.755216 of unit cell:	Completed after 0 iterations at t[s]:   5711.82
	FillingsUpdate:  mu: -0.171251800  nElectrons: 448.135786  magneticMoment: [ Abs: 0.00033  Tot: -0.00000 ]
	SubspaceRotationAdjust: set factor to 0.103
ElecMinimize: Iter:   3  G: -1750.584969832893648  |grad|_K:  2.046e-07  alpha:  1.137e+00  linmin: -1.310e-04  t[s]:   5735.86
	Linear fluid (dielectric constant: 78.4, screening length: 5.74355 Bohr) occupying 0.755219 of unit cell:	Completed after 3 iterations at t[s]:   5752.53
	Linear fluid (dielectric constant: 78.4, screening length: 5.74355 Bohr) occupying 0.755219 of unit cell:	Completed after 0 iterations at t[s]:   5770.38
	FillingsUpdate:  mu: -0.171251800  nElectrons: 448.134941  magneticMoment: [ Abs: 0.00031  Tot: -0.00000 ]
	SubspaceRotationAdjust: set factor to 0.115
ElecMinimize: Iter:   4  G: -1750.584983550014840  |grad|_K:  2.263e-07  alpha:  1.102e+00  linmin: -9.495e-06  t[s]:   5794.39
	Linear fluid (dielectric constant: 78.4, screening length: 5.74355 Bohr) occupying 0.755224 of unit cell:	Completed after 2 iterations at t[s]:   5810.80
	Linear fluid (dielectric constant: 78.4, screening length: 5.74355 Bohr) occupying 0.755222 of unit cell:	Completed after 2 iterations at t[s]:   5829.17
	FillingsUpdate:  mu: -0.171251800  nElectrons: 448.134215  magneticMoment: [ Abs: 0.00027  Tot: -0.00000 ]
	SubspaceRotationAdjust: set factor to 0.122
ElecMinimize: Iter:   5  G: -1750.584993973054452  |grad|_K:  1.948e-07  alpha:  7.006e-01  linmin:  6.509e-06  t[s]:   5854.10
	Linear fluid (dielectric constant: 78.4, screening length: 5.74355 Bohr) occupying 0.755225 of unit cell:	Completed after 3 iterations at t[s]:   5870.43
	Linear fluid (dielectric constant: 78.4, screening length: 5.74355 Bohr) occupying 0.755224 of unit cell:	Completed after 0 iterations at t[s]:   5888.38
	FillingsUpdate:  mu: -0.171251800  nElectrons: 448.135416  magneticMoment: [ Abs: 0.00020  Tot: -0.00000 ]
	SubspaceRotationAdjust: set factor to 0.126
ElecMinimize: Iter:   6  G: -1750.585000664461404  |grad|_K:  1.416e-07  alpha:  6.077e-01  linmin:  1.916e-05  t[s]:   5912.30
	Linear fluid (dielectric constant: 78.4, screening length: 5.74355 Bohr) occupying 0.755225 of unit cell:	Completed after 0 iterations at t[s]:   5928.16
	Linear fluid (dielectric constant: 78.4, screening length: 5.74355 Bohr) occupying 0.755225 of unit cell:	Completed after 0 iterations at t[s]:   5945.13
	FillingsUpdate:  mu: -0.171251800  nElectrons: 448.135841  magneticMoment: [ Abs: 0.00013  Tot: -0.00000 ]
	SubspaceRotationAdjust: set factor to 0.133
ElecMinimize: Iter:   7  G: -1750.585004593731355  |grad|_K:  9.633e-08  alpha:  6.793e-01  linmin:  2.683e-07  t[s]:   5969.27
	Linear fluid (dielectric constant: 78.4, screening length: 5.74355 Bohr) occupying 0.755224 of unit cell:	Completed after 2 iterations at t[s]:   5985.57
	Linear fluid (dielectric constant: 78.4, screening length: 5.74355 Bohr) occupying 0.755224 of unit cell:	Completed after 0 iterations at t[s]:   6003.35
	FillingsUpdate:  mu: -0.171251800  nElectrons: 448.135733  magneticMoment: [ Abs: 0.00009  Tot: -0.00000 ]
	SubspaceRotationAdjust: set factor to 0.137
ElecMinimize: Iter:   8  G: -1750.585005883568328  |grad|_K:  6.787e-08  alpha:  4.969e-01  linmin: -3.592e-05  t[s]:   6027.64
	Linear fluid (dielectric constant: 78.4, screening length: 5.74355 Bohr) occupying 0.755223 of unit cell:	Completed after 2 iterations at t[s]:   6044.37
	Linear fluid (dielectric constant: 78.4, screening length: 5.74355 Bohr) occupying 0.755223 of unit cell:	Completed after 0 iterations at t[s]:   6061.85
	FillingsUpdate:  mu: -0.171251800  nElectrons: 448.136690  magneticMoment: [ Abs: 0.00006  Tot: -0.00000 ]
	SubspaceRotationAdjust: set factor to 0.153
ElecMinimize: Iter:   9  G: -1750.585006533026899  |grad|_K:  4.382e-08  alpha:  4.778e-01  linmin: -7.444e-05  t[s]:   6085.83
	Linear fluid (dielectric constant: 78.4, screening length: 5.74355 Bohr) occupying 0.755222 of unit cell:	Completed after 0 iterations at t[s]:   6101.73
	Linear fluid (dielectric constant: 78.4, screening length: 5.74355 Bohr) occupying 0.755222 of unit cell:	Completed after 0 iterations at t[s]:   6118.58
	FillingsUpdate:  mu: -0.171251800  nElectrons: 448.136977  magneticMoment: [ Abs: 0.00005  Tot: -0.00000 ]
	SubspaceRotationAdjust: set factor to 0.197
ElecMinimize: Iter:  10  G: -1750.585006904186230  |grad|_K:  3.702e-08  alpha:  6.299e-01  linmin:  2.956e-09  t[s]:   6142.46
	Linear fluid (dielectric constant: 78.4, screening length: 5.74355 Bohr) occupying 0.755220 of unit cell:	Completed after 1 iterations at t[s]:   6158.49
	Linear fluid (dielectric constant: 78.4, screening length: 5.74355 Bohr) occupying 0.755221 of unit cell:	Completed after 0 iterations at t[s]:   6176.12
	FillingsUpdate:  mu: -0.171251800  nElectrons: 448.136916  magneticMoment: [ Abs: 0.00004  Tot: -0.00000 ]
	SubspaceRotationAdjust: set factor to 0.259
ElecMinimize: Iter:  11  G: -1750.585007076933152  |grad|_K:  3.047e-08  alpha:  4.713e-01  linmin: -4.384e-05  t[s]:   6200.17
	Linear fluid (dielectric constant: 78.4, screening length: 5.74355 Bohr) occupying 0.755220 of unit cell:	Completed after 0 iterations at t[s]:   6215.94
	Linear fluid (dielectric constant: 78.4, screening length: 5.74355 Bohr) occupying 0.755219 of unit cell:	Completed after 0 iterations at t[s]:   6233.30
	FillingsUpdate:  mu: -0.171251800  nElectrons: 448.136496  magneticMoment: [ Abs: 0.00004  Tot: -0.00000 ]
	SubspaceRotationAdjust: set factor to 0.334
ElecMinimize: Iter:  12  G: -1750.585007262954377  |grad|_K:  3.136e-08  alpha:  6.384e-01  linmin:  1.193e-07  t[s]:   6257.29
	Linear fluid (dielectric constant: 78.4, screening length: 5.74355 Bohr) occupying 0.755218 of unit cell:	Completed after 2 iterations at t[s]:   6273.76
	Linear fluid (dielectric constant: 78.4, screening length: 5.74355 Bohr) occupying 0.755219 of unit cell:	Completed after 0 iterations at t[s]:   6291.60
	FillingsUpdate:  mu: -0.171251800  nElectrons: 448.136105  magneticMoment: [ Abs: 0.00004  Tot: -0.00000 ]
	SubspaceRotationAdjust: set factor to 0.275
ElecMinimize: Iter:  13  G: -1750.585007309252887  |grad|_K:  4.434e-08  alpha:  2.833e-01  linmin:  3.535e-05  t[s]:   6315.96
	Linear fluid (dielectric constant: 78.4, screening length: 5.74355 Bohr) occupying 0.755218 of unit cell:	Completed after 0 iterations at t[s]:   6331.76
	Linear fluid (dielectric constant: 78.4, screening length: 5.74355 Bohr) occupying 0.755218 of unit cell:	Completed after 0 iterations at t[s]:   6348.84
	FillingsUpdate:  mu: -0.171251800  nElectrons: 448.136703  magneticMoment: [ Abs: 0.00004  Tot: -0.00000 ]
	SubspaceRotationAdjust: set factor to 0.282
ElecMinimize: Iter:  14  G: -1750.585007398078233  |grad|_K:  4.265e-08  alpha:  1.867e-01  linmin:  2.329e-08  t[s]:   6372.63
	Linear fluid (dielectric constant: 78.4, screening length: 5.74355 Bohr) occupying 0.755218 of unit cell:	Completed after 3 iterations at t[s]:   6389.28
	Linear fluid (dielectric constant: 78.4, screening length: 5.74355 Bohr) occupying 0.755218 of unit cell:	Completed after 0 iterations at t[s]:   6407.08
	FillingsUpdate:  mu: -0.171251800  nElectrons: 448.137098  magneticMoment: [ Abs: 0.00004  Tot: -0.00000 ]
	SubspaceRotationAdjust: set factor to 0.207
ElecMinimize: Iter:  15  G: -1750.585007413285894  |grad|_K:  5.268e-08  alpha:  5.091e-02  linmin:  1.514e-04  t[s]:   6431.27
ElecMinimize: 	Bad step direction: g.d > 0.
ElecMinimize: 	Undoing step.
	Linear fluid (dielectric constant: 78.4, screening length: 5.74355 Bohr) occupying 0.755218 of unit cell:	Completed after 0 iterations at t[s]:   6447.36
ElecMinimize: 	Step failed: resetting search direction.
	FillingsUpdate:  mu: -0.171251800  nElectrons: 448.137098  magneticMoment: [ Abs: 0.00004  Tot: -0.00000 ]
	SubspaceRotationAdjust: set factor to 0.2
ElecMinimize: Iter:  16  G: -1750.585007413281573  |grad|_K:  4.832e-08  alpha:  0.000e+00
	Linear fluid (dielectric constant: 78.4, screening length: 5.74355 Bohr) occupying 0.755218 of unit cell:	Completed after 0 iterations at t[s]:   6487.23
ElecMinimize: 	Predicted alpha/alphaT>3.000000, increasing alphaT to 1.527376e-01.
	Linear fluid (dielectric constant: 78.4, screening length: 5.74355 Bohr) occupying 0.755218 of unit cell:	Completed after 2 iterations at t[s]:   6504.65
	Linear fluid (dielectric constant: 78.4, screening length: 5.74355 Bohr) occupying 0.755218 of unit cell:	Completed after 0 iterations at t[s]:   6522.41
ElecMinimize: 	Step increased G by 5.490392e-09, reducing alpha to 7.734402e-03.
	Linear fluid (dielectric constant: 78.4, screening length: 5.74355 Bohr) occupying 0.755218 of unit cell:	Completed after 0 iterations at t[s]:   6558.92
ElecMinimize: 	Step increased G by 1.958347e-08, reducing alpha to 7.734402e-04.
	Linear fluid (dielectric constant: 78.4, screening length: 5.74355 Bohr) occupying 0.755218 of unit cell:	Completed after 0 iterations at t[s]:   6595.81
ElecMinimize: 	Step increased G by 2.132742e-08, reducing alpha to 7.734402e-05.
ElecMinimize: 	Step failed to reduce G after 3 attempts. Quitting step.
ElecMinimize: 	Undoing step.
	Linear fluid (dielectric constant: 78.4, screening length: 5.74355 Bohr) occupying 0.755218 of unit cell:	Completed after 0 iterations at t[s]:   6632.65
ElecMinimize: 	Step failed along negative gradient direction.
ElecMinimize: Probably at roundoff error limit. (Stopping)
Setting wave functions to eigenvectors of Hamiltonian

# Ionic positions in lattice coordinates:
[...]
	Linear fluid (dielectric constant: 78.4, screening length: 5.74355 Bohr) occupying 0.754953 of unit cell:	Completed after 0 iterations at t[s]:  30428.66
	Linear fluid (dielectric constant: 78.4, screening length: 5.74355 Bohr) occupying 0.754952 of unit cell:	Completed after 0 iterations at t[s]:  30445.64
	FillingsUpdate:  mu: -0.171251800  nElectrons: 448.097068  magneticMoment: [ Abs: 0.00013  Tot: +0.00005 ]
	SubspaceRotationAdjust: set factor to 0.125
ElecMinimize: Iter:  16  G: -1750.586836124509773  |grad|_K:  9.871e-09  alpha:  3.401e-01  linmin: -8.840e-03  t[s]:  30470.45
	Linear fluid (dielectric constant: 78.4, screening length: 5.74355 Bohr) occupying 0.754952 of unit cell:	Completed after 1 iterations at t[s]:  30486.64
	Linear fluid (dielectric constant: 78.4, screening length: 5.74355 Bohr) occupying 0.754952 of unit cell:	Completed after 0 iterations at t[s]:  30504.20
ElecMinimize: 	Step increased G by 4.834533e-08, reducing alpha to 3.603629e-03.
	Linear fluid (dielectric constant: 78.4, screening length: 5.74355 Bohr) occupying 0.754952 of unit cell:	Completed after 0 iterations at t[s]:  30541.64
ElecMinimize: 	Step increased G by 4.056687e-08, reducing alpha to 3.603629e-04.
	Linear fluid (dielectric constant: 78.4, screening length: 5.74355 Bohr) occupying 0.754952 of unit cell:	Completed after 0 iterations at t[s]:  30578.48
ElecMinimize: 	Step increased G by 3.977061e-08, reducing alpha to 3.603629e-05.
ElecMinimize: 	Step failed to reduce G after 3 attempts. Quitting step.
ElecMinimize: 	Undoing step.
	Linear fluid (dielectric constant: 78.4, screening length: 5.74355 Bohr) occupying 0.754952 of unit cell:	Completed after 0 iterations at t[s]:  30615.15
ElecMinimize: 	Step failed: resetting search direction.
	FillingsUpdate:  mu: -0.171251800  nElectrons: 448.097068  magneticMoment: [ Abs: 0.00013  Tot: +0.00005 ]
	SubspaceRotationAdjust: set factor to 0.108
ElecMinimize: Iter:  17  G: -1750.586836084769402  |grad|_K:  3.017e-08  alpha:  3.604e-05
	Linear fluid (dielectric constant: 78.4, screening length: 5.74355 Bohr) occupying 0.754952 of unit cell:	Completed after 2 iterations at t[s]:  30655.69
	Linear fluid (dielectric constant: 78.4, screening length: 5.74355 Bohr) occupying 0.754952 of unit cell:	Completed after 0 iterations at t[s]:  30673.62
	FillingsUpdate:  mu: -0.171251800  nElectrons: 448.096555  magneticMoment: [ Abs: 0.00013  Tot: +0.00005 ]
	SubspaceRotationAdjust: set factor to 0.0567
ElecMinimize: Iter:  18  G: -1750.586836110268905  |grad|_K:  1.265e-08  alpha:  1.613e-01  linmin:  1.481e-02  t[s]:  30697.31
	Linear fluid (dielectric constant: 78.4, screening length: 5.74355 Bohr) occupying 0.754952 of unit cell:	Completed after 0 iterations at t[s]:  30713.02
ElecMinimize: 	Predicted alpha/alphaT>3.000000, increasing alphaT to 4.837899e-01.
	Linear fluid (dielectric constant: 78.4, screening length: 5.74355 Bohr) occupying 0.754952 of unit cell:	Completed after 0 iterations at t[s]:  30729.85
	Linear fluid (dielectric constant: 78.4, screening length: 5.74355 Bohr) occupying 0.754952 of unit cell:	Completed after 2 iterations at t[s]:  30747.49
ElecMinimize: 	Step increased G by 6.459368e-08, reducing alpha to 1.176888e-01.
	Linear fluid (dielectric constant: 78.4, screening length: 5.74355 Bohr) occupying 0.754952 of unit cell:	Completed after 0 iterations at t[s]:  30784.52
	FillingsUpdate:  mu: -0.171251800  nElectrons: 448.096527  magneticMoment: [ Abs: 0.00013  Tot: +0.00005 ]
	SubspaceRotationAdjust: set factor to 0.0417
ElecMinimize: Iter:  19  G: -1750.586836123628473  |grad|_K:  1.289e-08  alpha:  1.177e-01  linmin:  7.582e-03  t[s]:  30808.33
	Linear fluid (dielectric constant: 78.4, screening length: 5.74355 Bohr) occupying 0.754952 of unit cell:	Completed after 0 iterations at t[s]:  30824.24
	Linear fluid (dielectric constant: 78.4, screening length: 5.74355 Bohr) occupying 0.754952 of unit cell:	Completed after 0 iterations at t[s]:  30841.32
	FillingsUpdate:  mu: -0.171251800  nElectrons: 448.096337  magneticMoment: [ Abs: 0.00013  Tot: +0.00005 ]
	SubspaceRotationAdjust: set factor to 0.0585
ElecMinimize: Iter:  20  G: -1750.586836134603345  |grad|_K:  1.084e-08  alpha:  3.055e-01  linmin: -4.009e-03  t[s]:  30865.48
	Linear fluid (dielectric constant: 78.4, screening length: 5.74355 Bohr) occupying 0.754952 of unit cell:	Completed after 0 iterations at t[s]:  30881.14
	Linear fluid (dielectric constant: 78.4, screening length: 5.74355 Bohr) occupying 0.754952 of unit cell:	Completed after 2 iterations at t[s]:  30898.80
ElecMinimize: 	Step increased G by 7.535778e-08, reducing alpha to 5.820606e-02.
	Linear fluid (dielectric constant: 78.4, screening length: 5.74355 Bohr) occupying 0.754952 of unit cell:	Completed after 0 iterations at t[s]:  30935.94
ElecMinimize: 	Step increased G by 2.177831e-08, reducing alpha to 5.820606e-03.
	Linear fluid (dielectric constant: 78.4, screening length: 5.74355 Bohr) occupying 0.754952 of unit cell:	Completed after 0 iterations at t[s]:  30972.65
ElecMinimize: 	Step increased G by 1.823082e-08, reducing alpha to 5.820606e-04.
ElecMinimize: 	Step failed to reduce G after 3 attempts. Quitting step.
ElecMinimize: 	Undoing step.
	Linear fluid (dielectric constant: 78.4, screening length: 5.74355 Bohr) occupying 0.754952 of unit cell:	Completed after 0 iterations at t[s]:  31009.36
ElecMinimize: 	Step failed: resetting search direction.
	FillingsUpdate:  mu: -0.171251800  nElectrons: 448.096333  magneticMoment: [ Abs: 0.00013  Tot: +0.00005 ]
	SubspaceRotationAdjust: set factor to 0.0525
ElecMinimize: Iter:  21  G: -1750.586836116396171  |grad|_K:  1.219e-08  alpha:  5.821e-04
	Linear fluid (dielectric constant: 78.4, screening length: 5.74355 Bohr) occupying 0.754952 of unit cell:	Completed after 0 iterations at t[s]:  31049.54
	Linear fluid (dielectric constant: 78.4, screening length: 5.74355 Bohr) occupying 0.754952 of unit cell:	Completed after 0 iterations at t[s]:  31066.71
	FillingsUpdate:  mu: -0.171251800  nElectrons: 448.096371  magneticMoment: [ Abs: 0.00012  Tot: +0.00006 ]
	SubspaceRotationAdjust: set factor to 0.0741
ElecMinimize: Iter:  22  G: -1750.586836131493783  |grad|_K:  7.287e-09  alpha:  3.349e-01  linmin: -2.063e-02  t[s]:  31090.67
	Linear fluid (dielectric constant: 78.4, screening length: 5.74355 Bohr) occupying 0.754952 of unit cell:	Completed after 0 iterations at t[s]:  31106.94
	Linear fluid (dielectric constant: 78.4, screening length: 5.74355 Bohr) occupying 0.754952 of unit cell:	Completed after 0 iterations at t[s]:  31123.64
ElecMinimize: 	Step increased G by 1.312628e-08, reducing alpha to 9.608587e-03.
	Linear fluid (dielectric constant: 78.4, screening length: 5.74355 Bohr) occupying 0.754952 of unit cell:	Completed after 0 iterations at t[s]:  31160.42
ElecMinimize: 	Step increased G by 1.454646e-08, reducing alpha to 9.608587e-04.
	Linear fluid (dielectric constant: 78.4, screening length: 5.74355 Bohr) occupying 0.754952 of unit cell:	Completed after 0 iterations at t[s]:  31197.16
ElecMinimize: 	Step increased G by 1.472290e-08, reducing alpha to 9.608587e-05.
ElecMinimize: 	Step failed to reduce G after 3 attempts. Quitting step.
ElecMinimize: 	Undoing step.
	Linear fluid (dielectric constant: 78.4, screening length: 5.74355 Bohr) occupying 0.754952 of unit cell:	Completed after 0 iterations at t[s]:  31233.52
ElecMinimize: 	Step failed: resetting search direction.
	FillingsUpdate:  mu: -0.171251800  nElectrons: 448.096371  magneticMoment: [ Abs: 0.00012  Tot: +0.00006 ]
	SubspaceRotationAdjust: set factor to 0.0873
ElecMinimize: Iter:  23  G: -1750.586836116798622  |grad|_K:  5.659e-09  alpha:  9.609e-05
	Linear fluid (dielectric constant: 78.4, screening length: 5.74355 Bohr) occupying 0.754952 of unit cell:	Completed after 0 iterations at t[s]:  31273.29
	Linear fluid (dielectric constant: 78.4, screening length: 5.74355 Bohr) occupying 0.754952 of unit cell:	Completed after 0 iterations at t[s]:  31290.42
	FillingsUpdate:  mu: -0.171251800  nElectrons: 448.096396  magneticMoment: [ Abs: 0.00011  Tot: +0.00006 ]
	SubspaceRotationAdjust: set factor to 0.0651
ElecMinimize: Iter:  24  G: -1750.586836122884279  |grad|_K:  4.789e-09  alpha:  5.187e-01  linmin: -1.458e-02  t[s]:  31314.47
	Linear fluid (dielectric constant: 78.4, screening length: 5.74355 Bohr) occupying 0.754952 of unit cell:	Completed after 0 iterations at t[s]:  31330.58
	Linear fluid (dielectric constant: 78.4, screening length: 5.74355 Bohr) occupying 0.754952 of unit cell:	Completed after 0 iterations at t[s]:  31347.39
ElecMinimize: 	Step increased G by 8.300276e-09, reducing alpha to 1.722316e-02.
	Linear fluid (dielectric constant: 78.4, screening length: 5.74355 Bohr) occupying 0.754952 of unit cell:	Completed after 0 iterations at t[s]:  31384.56
ElecMinimize: 	Step increased G by 9.865971e-09, reducing alpha to 1.722316e-03.
	Linear fluid (dielectric constant: 78.4, screening length: 5.74355 Bohr) occupying 0.754952 of unit cell:	Completed after 0 iterations at t[s]:  31421.28
ElecMinimize: 	Step increased G by 1.002400e-08, reducing alpha to 1.722316e-04.
ElecMinimize: 	Step failed to reduce G after 3 attempts. Quitting step.
ElecMinimize: 	Undoing step.
	Linear fluid (dielectric constant: 78.4, screening length: 5.74355 Bohr) occupying 0.754952 of unit cell:	Completed after 0 iterations at t[s]:  31458.29
ElecMinimize: 	Step failed: resetting search direction.
	FillingsUpdate:  mu: -0.171251800  nElectrons: 448.096396  magneticMoment: [ Abs: 0.00011  Tot: +0.00006 ]
	SubspaceRotationAdjust: set factor to 0.053
ElecMinimize: Iter:  25  G: -1750.586836112851643  |grad|_K:  3.367e-09  alpha:  1.722e-04
	Linear fluid (dielectric constant: 78.4, screening length: 5.74355 Bohr) occupying 0.754952 of unit cell:	Completed after 0 iterations at t[s]:  31498.09
	Linear fluid (dielectric constant: 78.4, screening length: 5.74355 Bohr) occupying 0.754952 of unit cell:	Completed after 0 iterations at t[s]:  31514.74
	FillingsUpdate:  mu: -0.171251800  nElectrons: 448.096392  magneticMoment: [ Abs: 0.00011  Tot: +0.00007 ]
	SubspaceRotationAdjust: set factor to 0.0455
ElecMinimize: Iter:  26  G: -1750.586836116577615  |grad|_K:  3.012e-09  alpha:  8.994e-01  linmin: -6.461e-03  t[s]:  31538.65
	Linear fluid (dielectric constant: 78.4, screening length: 5.74355 Bohr) occupying 0.754952 of unit cell:	Completed after 0 iterations at t[s]:  31554.50
	Linear fluid (dielectric constant: 78.4, screening length: 5.74355 Bohr) occupying 0.754952 of unit cell:	Completed after 0 iterations at t[s]:  31571.68
	FillingsUpdate:  mu: -0.171251800  nElectrons: 448.096386  magneticMoment: [ Abs: 0.00012  Tot: +0.00008 ]
	SubspaceRotationAdjust: set factor to 0.0639
ElecMinimize: Iter:  27  G: -1750.586836121768556  |grad|_K:  3.680e-09  alpha:  1.124e+00  linmin: -2.429e-03  t[s]:  31595.60
ElecMinimize: Converged (|Delta G|<1.000000e-08 for 2 iters).
Setting wave functions to eigenvectors of Hamiltonian

# Ionic positions in lattice coordinates:
ion Ru   0.174590326620609   0.081082693699663   0.493181780663023 1
ion Ru   0.406398857609475   0.081005403712364   0.493177973196036 1
ion Ru   0.673326279254694   0.061304043120745   0.499737590397152 1
ion Ru   0.887753575541471   0.061296171773483   0.499760841641333 1
ion Ru   0.161159496037322   0.356572951739267   0.501195639514029 1
ion Ru   0.389903571279611   0.280020147273803   0.477635935011820 1
ion Ru   0.695141012942797   0.356597826072174   0.501208327070532 1
ion Ru   0.929285548625660   0.358802722579776   0.502610689212483 1
ion Ru   0.175663376019410   0.574949938457982   0.502878582681881 1
ion Ru   0.385184648440965   0.562133277204323   0.509550429677104 1
ion Ru   0.676459141194819   0.562116183511816   0.509599517955865 1
ion Ru   0.898931358728518   0.575042701647865   0.502905552146195 1
ion Ru   0.184366680722885   0.868829789943953   0.497822940374580 1
ion Ru   0.442121648462618   0.850216796274993   0.499997628863344 1
ion Ru   0.670956360605481   0.842320873108366   0.504392627881625 1
ion Ru   0.907214107572350   0.849955155077543   0.500050423797000 1
ion Se   0.011343396236619   0.019057031318424   0.579576896304799 1
ion Se   0.001761160208338   0.012086540006488   0.414379073290795 1
ion Se   0.258996142439138   0.018154416661038   0.589690244032146 1
ion Se   0.254788749695122   0.009782153059225   0.399582697691542 1
ion Se   0.507665109453761   0.019227054965020   0.579663280226427 1
ion Se   0.510289982266025   0.012274057401922   0.414233297987086 1
ion Se   0.746710954276994  -0.006308549265874   0.597923445238850 1
ion Se   0.742733130645109  -0.014343473466860   0.404710486499077 1
ion Se  -0.010840647599096   0.242649862801165   0.577809965104288 1
ion Se  -0.012110481986701   0.244979829150578   0.424676361317246 1
ion Se   0.243898743302356   0.255073360559492   0.570106260648396 1
ion Se   0.220997499857599   0.246472122411694   0.412449220172434 1
ion Se   0.510907690266963   0.255070061832662   0.570103499338327 1
ion Se   0.525249401438392   0.246490858426345   0.412446523461540 1
ion Se   0.753265041037732   0.242685584745853   0.577800583058561 1
ion Se   0.756885666986632   0.245052348276971   0.424671431205983 1
ion Se   0.013389346074491   0.527176668775893   0.586187639336120 1
ion Se   0.013052005753081   0.526559733158226   0.418849215725897 1
ion Se   0.238737653454196   0.496109981233940   0.602308148178809 1
ion Se   0.253317857112311   0.503512372369012   0.406958896452670 1
ion Se   0.504175693069894   0.508864451983108   0.591374090788594 1
ion Se   0.486262151195322   0.472900692024823   0.435817472002303 1
ion Se   0.756997540436899   0.496120447754171   0.602332674764782 1
ion Se   0.749812315768360   0.503578874282924   0.407002100973953 1
ion Se   0.001649232904365   0.761928646659447   0.573350424717312 1
ion Se  -0.001971557620015   0.758054337200150   0.427147344060526 1
ion Se   0.259797901103817   0.761744081188512   0.573409216393033 1
ion Se   0.259501990870703   0.757860869290468   0.427028981829898 1
ion Se   0.496286698333590   0.740804804992953   0.582747097452526 1
ion Se   0.497607061326023   0.729718405472218   0.426653817369833 1
ion Se   0.743833157366362   0.740679669396742   0.582866611781099 1
ion Se   0.731422659106365   0.729531528841215   0.426615219090652 1
ion H   0.549910852560527   0.600354600293936   0.649750832420517 1


# Forces in Lattice coordinates:
force Ru   0.001428043929887  -0.004862190246596   0.001767883454791 1
force Ru  -0.000220209198386  -0.004598791399743   0.002058090028438 1
force Ru  -0.002628819606619  -0.005895841450474  -0.000927291708804 1
force Ru   0.001538152972723  -0.007119378570843  -0.001009577059435 1
force Ru   0.005412861890003  -0.004331251518816   0.000240554918376 1
force Ru   0.000774991729514  -0.004991615928547   0.005113401882544 1
force Ru  -0.005222204776013   0.000423239708520  -0.000074929778632 1
force Ru  -0.000114195527608   0.002552594208037   0.000721291076956 1
force Ru  -0.000807349122163   0.004181039001343  -0.000646372006187 1
force Ru   0.001190033892478   0.001529563873595   0.000358586298637 1
force Ru  -0.001671014631462   0.002289670777954   0.000447678353241 1
force Ru   0.001154592787657   0.002733358793977  -0.000889163442421 1
force Ru   0.000873888845605   0.004524302348164   0.000312214502638 1
force Ru  -0.000974230345355   0.005101040528369   0.000684940551615 1
force Ru  -0.001088889783980   0.005867231305675   0.000875624334240 1
force Ru   0.001621006002779   0.003265860699066   0.000235074362147 1
force Se  -0.001624343350966   0.001591852012506  -0.000674643752251 1
force Se  -0.001055287467616   0.002495622172377   0.001663277378745 1
force Se  -0.000108683407558  -0.001234273855813  -0.002056438278721 1
force Se   0.000111440770377   0.000233280022161   0.004758014722885 1
force Se   0.002250792287838  -0.000313930346995  -0.000724073156361 1
force Se   0.001597551907605   0.000963494675782   0.002369856834701 1
force Se   0.000461663282925   0.000315866117129   0.001171838981674 1
force Se   0.000249905559414   0.000735530578482   0.000654519792262 1
force Se   0.000873437284891   0.000646110864213   0.004134177592688 1
force Se   0.001540966322860   0.000175671257374  -0.002058092901185 1
force Se  -0.000017221886369   0.000239974894491   0.004328718507123 1
force Se   0.000367378759010   0.000877643088501   0.000553355825119 1
force Se   0.000244762273010   0.000000550468756   0.003965041746540 1
force Se  -0.000447546063737   0.001053523480641   0.000820288476675 1
force Se  -0.000249774577751   0.001574158095238   0.003943628311768 1
force Se  -0.001061521320699   0.001619597158088  -0.001695483881329 1
force Se   0.000011371907472  -0.000089104388064   0.003442302127700 1
force Se   0.000137541813187  -0.000584987043681  -0.003117983671090 1
force Se   0.001631121045417  -0.000989035129663   0.003386734054368 1
force Se   0.001318622326596  -0.002248254128424  -0.001525055549617 1
force Se  -0.000219893686339   0.005778882820586   0.007016778098636 1
force Se  -0.000263474018900   0.001703592326153  -0.000163390562903 1
force Se  -0.001874132452158   0.000901876401988   0.003029771266304 1
force Se  -0.001458619409192  -0.000861443471387  -0.001632893926710 1
force Se  -0.000247857406581  -0.002157938543799   0.001945212146738 1
force Se   0.000082535995471  -0.002184396145095  -0.002592721664083 1
force Se  -0.000254815321282  -0.002331035831393   0.002491754456258 1
force Se  -0.000250172428331  -0.002146899102219  -0.002598889407516 1
force Se  -0.000746367482753   0.000255566114983  -0.000944413972243 1
force Se  -0.000426132583837   0.000166995555650   0.000708039843826 1
force Se   0.000372907525937  -0.000621247497008  -0.000565847139748 1
force Se  -0.000191633849347  -0.000321919614753  -0.000034653059888 1
force H  -0.000310616259520   0.004550355684128  -0.006448508058895 1

# Energy components:
   A_diel =        0.0499694082683315
   Eewald =     8589.8595876019116986
       EH =    10115.4656332923732407
     Eloc =   -21200.1508836665525450
      Enl =      365.9605778857720679
      Exc =     -682.5163329479560161
 Exc_core =      425.1674092706645638
       KE =      558.8776066784129171
  MuShift =        0.0099953455479166
-------------------------------------
     Etot =    -1827.2764371315561220
       TS =        0.0477117391831500
-------------------------------------
        F =    -1827.3241488707392364
      muN =      -76.7373127489707088
-------------------------------------
        G =    -1750.5868361217685560

IonicMinimize: Iter:  15  G: -1750.586836121768556  |grad|_K:  8.908e-05  alpha:  1.000e+00  linmin: -1.208e-01  t[s]:  31610.89
IonicMinimize: Converged (|grad|_K<1.000000e-04).

#--- Lowdin population analysis ---
# oxidation-state Ru -0.833 -0.832 -0.846 -0.847 -0.862 -0.880 -0.862 -0.828 -0.846 -0.873 -0.873 -0.846 -0.872 -0.861 -0.834 -0.862
# magnetic-moments Ru -0.000 -0.000 +0.000 +0.000 +0.000 -0.000 +0.000 +0.000 +0.000 +0.000 +0.000 +0.000 -0.000 -0.000 -0.000 +0.000
# oxidation-state Se +0.504 +0.503 +0.494 +0.512 +0.504 +0.503 +0.537 +0.543 +0.548 +0.558 +0.516 +0.536 +0.516 +0.537 +0.548 +0.558 +0.499 +0.497 +0.518 +0.506 +0.469 +0.484 +0.517 +0.506 +0.561 +0.561 +0.560 +0.560 +0.548 +0.524 +0.547 +0.523
# magnetic-moments Se -0.000 -0.000 -0.000 -0.000 -0.000 -0.000 -0.000 -0.000 -0.000 -0.000 -0.000 -0.000 -0.000 -0.000 -0.000 -0.000 -0.000 -0.000 -0.000 +0.000 -0.000 -0.000 -0.000 -0.000 -0.000 -0.000 -0.000 -0.000 -0.000 -0.000 -0.000 -0.000
# oxidation-state H +0.063
# magnetic-moments H -0.000


Dumping 'NbTe2.fillings' ... done
Dumping 'NbTe2.wfns' ... done
Dumping 'NbTe2.fluidState' ... done
Dumping 'NbTe2.ionpos' ... done
Dumping 'NbTe2.eigenvals' ... done
End date and time: Wed Feb  3 02:43:55 2021  (Duration: 0-8:46:59.33)
Done!
