
*************** JDFTx 1.5.0  ***************

Start date and time: Fri Jul 17 08:27:45 2020
Executable jdftx_gpu with command-line: -i Charged.in -o Charged.out
Running on hosts (process indices):  amax (0-5)
Divided in process groups (process indices):  0 (0)  1 (1)  2 (2)  3 (3)  4 (4)  5 (5)
gpuInit: Found compatible cuda device 0 'Tesla K80'
gpuInit: Found compatible cuda device 1 'Tesla K80'
gpuInit: Found compatible cuda device 2 'Tesla K80'
gpuInit: Found compatible cuda device 3 'Tesla K80'
gpuInit: Found compatible cuda device 4 'Tesla K80'
gpuInit: Found compatible cuda device 5 'Tesla K80'
gpuInit: Selected device 0
Resource initialization completed at t[s]:     14.81
Run totals: 6 processes, 24 threads, 6 GPUs


Input parsed successfully to the following command list (including defaults):

basis kpoint-dependent
cache-projectors no
coords-type Lattice
core-overlap-check none
coulomb-interaction Slab 001
coulomb-truncation-embed 0 0 0.5
davidson-band-ratio 1.1
dump End State
dump-name NbTe2.$VAR
elec-cutoff 20 100
elec-eigen-algo Davidson
elec-ex-corr gga-PBE
elec-smearing Gauss 0.0073499
electronic-minimize  \
	dirUpdateScheme      FletcherReeves \
	linminMethod         DirUpdateRecommended \
	nIterations          500 \
	history              15 \
	knormThreshold       0 \
	energyDiffThreshold  1e-08 \
	nEnergyDiff          2 \
	alphaTstart          1 \
	alphaTmin            1e-10 \
	updateTestStepSize   yes \
	alphaTreduceFactor   0.1 \
	alphaTincreaseFactor 3 \
	nAlphaAdjustMax      3 \
	wolfeEnergy          0.0001 \
	wolfeGradient        0.9 \
	fdTest               no
exchange-regularization WignerSeitzTruncated
fluid LinearPCM 298.000000 1.013250
fluid-anion F- 1 MeanFieldLJ \
	epsBulk 1 \
	pMol 0 \
	epsInf 1 \
	Pvap 0 \
	sigmaBulk 0 \
	Rvdw 2.24877 \
	Res 0 \
	tauNuc 343133
fluid-cation Na+ 1 MeanFieldLJ \
	epsBulk 1 \
	pMol 0 \
	epsInf 1 \
	Pvap 0 \
	sigmaBulk 0 \
	Rvdw 2.19208 \
	Res 0 \
	tauNuc 343133
fluid-ex-corr lda-TF lda-PZ
fluid-gummel-loop 10 1.000000e-05
fluid-minimize  \
	dirUpdateScheme      PolakRibiere \
	linminMethod         DirUpdateRecommended \
	nIterations          400 \
	history              15 \
	knormThreshold       1e-11 \
	energyDiffThreshold  0 \
	nEnergyDiff          2 \
	alphaTstart          1 \
	alphaTmin            1e-10 \
	updateTestStepSize   yes \
	alphaTreduceFactor   0.1 \
	alphaTincreaseFactor 3 \
	nAlphaAdjustMax      6 \
	wolfeEnergy          0.0001 \
	wolfeGradient        0.9 \
	fdTest               no
fluid-solvent H2O 55.338 ScalarEOS \
	epsBulk 78.4 \
	pMol 0.92466 \
	epsInf 1.77 \
	Pvap 1.06736e-10 \
	sigmaBulk 4.62e-05 \
	Rvdw 2.61727 \
	Res 1.42 \
	tauNuc 343133 \
	poleEl 15 7 1
forces-output-coords Positions
initial-state NbTe2.$VAR
ion Ta   0.213581265741119   0.713017181539666   0.503485103925054 0
ion Ta   0.546914599074454   0.713017181539666   0.503485103925054 0
ion Ta   0.880247932407790   0.713017181539666   0.503485103925054 0
ion Ta   0.118327970237015   0.284816524772206   0.496559213290441 0
ion Ta   0.451661303570351   0.284816524772206   0.496559213290441 0
ion Ta   0.784994636903679   0.284816524772206   0.496559213290441 0
ion Ta   0.332664436640978   0.998859233128369   0.500013276381867 0
ion Ta   0.665997769974314   0.998859233128369   0.500013276381867 0
ion Ta   0.999331103307650   0.998859233128369   0.500013276381867 0
ion Te   0.183421857680783   0.893533469042336   0.394852166196919 0
ion Te   0.516755191014118   0.893533469042336   0.394852166196919 0
ion Te   0.850088524347454   0.893533469042336   0.394852166196919 0
ion Te   0.148569943645626   0.104260039151055   0.605163898206613 0
ion Te   0.481903276978962   0.104260039151055   0.605163898206613 0
ion Te   0.815236610312290   0.104260039151055   0.605163898206613 0
ion Te   0.073911335904473   0.550317382062583   0.420058795913245 0
ion Te   0.407244669237801   0.550317382062583   0.420058795913245 0
ion Te   0.740578002571137   0.550317382062583   0.420058795913245 0
ion Te   0.034918096803174   0.785249694005489   0.608013393589892 0
ion Te   0.368251430136510   0.785249694005489   0.608013393589892 0
ion Te   0.701584763469846   0.785249694005489   0.608013393589892 0
ion Te   0.296968864399781   0.212521659643903   0.392050361111161 0
ion Te   0.630302197733117   0.212521659643903   0.392050361111161 0
ion Te   0.963635531066453   0.212521659643903   0.392050361111161 0
ion Te   0.258059770179321   0.447530842297486   0.579979681835748 0
ion Te   0.591393103512657   0.447530842297486   0.579979681835748 0
ion Te   0.924726436845985   0.447530842297486   0.579979681835748 0
ion-species GBRV/$ID_pbe.uspp
ion-width Ecut
ionic-minimize  \
	dirUpdateScheme      L-BFGS \
	linminMethod         DirUpdateRecommended \
	nIterations          0 \
	history              15 \
	knormThreshold       0.0001 \
	energyDiffThreshold  1e-06 \
	nEnergyDiff          2 \
	alphaTstart          1 \
	alphaTmin            1e-10 \
	updateTestStepSize   yes \
	alphaTreduceFactor   0.1 \
	alphaTincreaseFactor 3 \
	nAlphaAdjustMax      3 \
	wolfeEnergy          0.0001 \
	wolfeGradient        0.9 \
	fdTest               no
kpoint   0.000000000000   0.000000000000   0.000000000000  1.00000000000000
kpoint-folding 3 3 1 
latt-move-scale 1 1 1
latt-scale 1 1 1 
lattice Triclinic 19.9959 18.365 36.0545 90 90 79.6035
lattice-minimize  \
	dirUpdateScheme      L-BFGS \
	linminMethod         DirUpdateRecommended \
	nIterations          0 \
	history              15 \
	knormThreshold       0 \
	energyDiffThreshold  1e-06 \
	nEnergyDiff          2 \
	alphaTstart          1 \
	alphaTmin            1e-10 \
	updateTestStepSize   yes \
	alphaTreduceFactor   0.1 \
	alphaTincreaseFactor 3 \
	nAlphaAdjustMax      3 \
	wolfeEnergy          0.0001 \
	wolfeGradient        0.9 \
	fdTest               no
lcao-params -1 1e-06 0.0073499
pcm-variant CANDLE
spintype no-spin
subspace-rotation-factor 1 yes
symmetries automatic
symmetry-threshold 0.0001
target-mu -0.171252 no




---------- Setting up symmetries ----------

Found 4 point-group symmetries of the bravais lattice
Found 3 space-group symmetries with basis
Applied RMS atom displacement 3.86331e-14 bohrs to make symmetries exact.

---------- Initializing the Grid ----------
R = 
[    19.9959    3.31413          0  ]
[          0    18.0635          0  ]
[          0          0    36.0545  ]
unit cell volume = 13022.7
G =
[   0.314224  -0.057651          0  ]
[          0   0.347839          0  ]
[          0          0   0.174269  ]
Minimum fftbox size, Smin = [  92  84  164  ]
Chosen fftbox size, S = [  96  84  168  ]

---------- Initializing tighter grid for wavefunction operations ----------
R = 
[    19.9959    3.31413          0  ]
[          0    18.0635          0  ]
[          0          0    36.0545  ]
unit cell volume = 13022.7
G =
[   0.314224  -0.057651          0  ]
[          0   0.347839          0  ]
[          0          0   0.174269  ]
Minimum fftbox size, Smin = [  84  76  148  ]
Chosen fftbox size, S = [  84  80  150  ]

---------- Exchange Correlation functional ----------
Initalized PBE GGA exchange.
Initalized PBE GGA correlation.

---------- Setting up pseudopotentials ----------
Width of ionic core gaussian charges (only for fluid interactions / plotting) set to 0.397384

Reading pseudopotential file '/home/guoxy/vasp/jdftx-1.5.0/build/pseudopotentials/GBRV/ta_pbe.uspp':
  Title: Ta.  Created by USPP 7.3.6 on 14-9-2013
  Reference state energy: -70.583193.  13 valence electrons in orbitals:
    |500>  occupation: 2  eigenvalue: -2.682396
    |510>  occupation: 6  eigenvalue: -1.447928
    |520>  occupation: 3  eigenvalue: -0.131987
    |600>  occupation: 2  eigenvalue: -0.199982
    |610>  occupation: 0  eigenvalue: -0.051129
  lMax: 3  lLocal: 3  QijEcut: 5
  7 projectors sampled on a log grid with 667 points:
    l: 0  eig: -2.682397  rCut: 1.4
    l: 0  eig: -0.199983  rCut: 1.4
    l: 1  eig: -1.447928  rCut: 1.5
    l: 1  eig: -0.051130  rCut: 1.5
    l: 2  eig: -0.131987  rCut: 1.7
    l: 2  eig: 0.150000  rCut: 1.7
    l: 3  eig: 0.250000  rCut: 2.3
  Partial core density with radius 1.2
  Transforming core density to a uniform radial grid of dG=0.02 with 1369 points.
  Transforming local potential to a uniform radial grid of dG=0.02 with 1369 points.
  Transforming nonlocal projectors to a uniform radial grid of dG=0.02 with 432 points.
  Transforming density augmentations to a uniform radial grid of dG=0.02 with 1369 points.
  Transforming atomic orbitals to a uniform radial grid of dG=0.02 with 432 points.
  Core radius for overlap checks: 2.30 bohrs.

Reading pseudopotential file '/home/guoxy/vasp/jdftx-1.5.0/build/pseudopotentials/GBRV/te_pbe.uspp':
  Title: Te.  Created by USPP 7.3.6 on 14-9-2013
  Reference state energy: -13.134220.  6 valence electrons in orbitals:
    |500>  occupation: 2  eigenvalue: -0.555231
    |510>  occupation: 4  eigenvalue: -0.218781
  lMax: 2  lLocal: 2  QijEcut: 5
  5 projectors sampled on a log grid with 723 points:
    l: 0  eig: -0.555229  rCut: 2.1
    l: 0  eig: 1.000000  rCut: 2.1
    l: 1  eig: -0.218780  rCut: 2.1
    l: 1  eig: 1.000000  rCut: 2.1
    l: 2  eig: 1.000000  rCut: 2.6
  Partial core density with radius 1.8
  Transforming core density to a uniform radial grid of dG=0.02 with 1369 points.
  Transforming local potential to a uniform radial grid of dG=0.02 with 1369 points.
  Transforming nonlocal projectors to a uniform radial grid of dG=0.02 with 432 points.
  Transforming density augmentations to a uniform radial grid of dG=0.02 with 1369 points.
  Transforming atomic orbitals to a uniform radial grid of dG=0.02 with 432 points.
  Core radius for overlap checks: 2.60 bohrs.

Initialized 2 species with 27 total atoms.

Folded 1 k-points by 3x3x1 to 9 k-points.

---------- Setting up k-points, bands, fillings ----------
Adding inversion symmetry to k-mesh for non-inversion-symmetric unit cell.
Reduced to 5 k-points under symmetry. 
Computing the number of bands and number of electrons
Reading initial fillings from file NbTe2.fillings.
nElectrons: 225.000000   nBands: 189   nStates: 5

----- Setting up reduced wavefunction bases (one per k-point) -----
average nbasis = 55646.778 , ideal nbasis = 55634.015

---------- Setting up coulomb interaction ----------
Fluid mode embedding: using embedded box, but periodic Coulomb kernel.
(Fluid response is responsible for (approximate) separation between periodic images.)
Setting up double-sized grid for truncated Coulomb potentials:
R = 
[    19.9959    3.31413          0  ]
[          0    18.0635          0  ]
[          0          0    72.1089  ]
unit cell volume = 26045.4
G =
[   0.314224  -0.057651          0  ]
[          0   0.347839          0  ]
[          0          0  0.0871346  ]
Chosen fftbox size, S = [  96  84  336  ]
Integer grid location selected as the embedding center:
   Grid: [  0  0  84  ]
   Lattice: [  0  0  0.5  ]
   Cartesian: [  0  0  18.0272  ]
Constructing Wigner-Seitz cell: 8 faces (6 quadrilaterals, 2 hexagons)
Range-separation parameter for embedded mesh potentials due to point charges: 0.589883 bohrs.

Initializing van der Waals corrections
	NOTE: vdW corrections apply only for interactions with fluid.
	Ta:  C6:  815.23 Eh-a0^6  R0: 3.326 a0 (WARNING: beyond Grimme's data set)
	Te:  C6:  550.54 Eh-a0^6  R0: 3.575 a0

---------- Setting up ewald sum ----------
Optimum gaussian width for ewald sums = 6.827472 bohr.
Real space sum over 605 unit cells with max indices [  5  5  2  ]
Reciprocal space sum over 5915 terms with max indices [  6  6  17  ]

---------- Allocating electronic variables ----------
Initializing wave functions:  reading from 'NbTe2.wfns'
----- createFluidSolver() ----- (Fluid-side solver setup)
   Initializing fluid molecule 'H2O'
     Initializing site 'O'
       Electron density: proportional to exp(-r/0.36935)*erfc((r-0.51523)/0.36823) with norm 6.826
       Charge density: gaussian nuclear width 0.478731 with net site charge 0.826
       Polarizability: cuspless exponential with width 0.32 and norm 3.73
       Hard sphere radius: 2.57003 bohrs
       Positions in reference frame:
         [ +0.000000 +0.000000 +0.000000 ]
     Initializing site 'H'
       Electron density: proportional to exp(-r/0.34641)*erfc((r-0)/0.390882) with norm 0.587
       Charge density: gaussian nuclear width 0.377945 with net site charge -0.413
       Polarizability: cuspless exponential with width 0.39 and norm 3.3
       Positions in reference frame:
         [ +0.000000 -1.441945 +1.122523 ]
         [ +0.000000 +1.441945 +1.122523 ]
     Net charge: 0   dipole magnitude: 0.927204
     Initializing spherical shell mfKernel with radius 2.61727 Bohr
     deltaS corrections:
       site 'O': -7.54299
       site 'H': -6.83917
   Initializing fluid molecule 'Na+'
     Initializing site 'Na'
       Electron density: proportional to exp(-r/0.19682)*erfc((r-0.71491)/0.41314) with norm 8.1383
       Charge density: gaussian nuclear width 0.365347 with net site charge -1
       Hard sphere radius: 1.86327 bohrs
       Positions in reference frame:
         [ +0.000000 +0.000000 +0.000000 ]
     Net charge: -1   dipole magnitude: 0
     Initializing gaussian mfKernel with width: 1.55004 Bohr
     deltaS corrections:
       site 'Na': -22.3555
   Initializing fluid molecule 'F-'
     Initializing site 'F'
       Electron density: proportional to exp(-r/0.38886)*erfc((r-0)/0.438782) with norm 8
       Charge density: gaussian nuclear width 0.374796 with net site charge 1
       Hard sphere radius: 2.39995 bohrs
       Positions in reference frame:
         [ +0.000000 +0.000000 +0.000000 ]
     Net charge: 1   dipole magnitude: 0
     Initializing gaussian mfKernel with width: 1.59012 Bohr
     deltaS corrections:
       site 'F': -9.04335

Correction to mu due to finite nuclear width = -0.00857138
   Cavity determined by nc: 0.00142 and sigma: 0.707107
   Nonlocal vdW cavity from gaussian model electron density with norm = 8 and sigma = 0.993594 bohr
   Charge asymmetry in cavity with sensitivity pCavity = 36.5 e-bohr/Eh
   Electrostatic cavity expanded by eta = 1.46 bohrs
   Weighted density cavitation model constrained by Nbulk: 0.0049383 bohr^-3, Pvap: 3.14029 kPa, Rvdw: 2.61727 bohr and sigmaBulk: 4.62e-05 Eh/bohr^2 at T: 298 K.
   Weighted density dispersion model using vdW pair potentials with single solvent site with sqrtC6eff: 0.77 SI.
Reading fluid state from 'NbTe2.fluidState'


---- Citations for features of the code used in this run ----

   Software package:
      R. Sundararaman, K. Letchworth-Weaver, K.A. Schwarz, D. Gunceler, Y. Ozhabes and T.A. Arias, 'JDFTx: software for joint density-functional theory', SoftwareX 6, 278 (2017)

   gga-PBE exchange-correlation functional:
      J.P. Perdew, K. Burke and M. Ernzerhof, Phys. Rev. Lett. 77, 3865 (1996)

   Pseudopotentials:
      KF Garrity, JW Bennett, KM Rabe and D Vanderbilt, Comput. Mater. Sci. 81, 446 (2014)

   Truncated Coulomb potentials:
      R. Sundararaman and T.A. Arias, Phys. Rev. B 87, 165122 (2013)

   Van der Waals correction pair-potentials:
      S. Grimme, J. Comput. Chem. 27, 1787 (2006)

   Charge-asymmetric nonlocally-determined local-electric (CANDLE) solvation model:
      R. Sundararaman and W.A. Goddard III, J. Chem. Phys. 142, 064107 (2015)

   Total energy minimization with Auxiliary Hamiltonian:
      C. Freysoldt, S. Boeck, and J. Neugebauer, Phys. Rev. B 79, 241103(R) (2009)

   Grand-canonical (fixed-potential) DFT:
      R. Sundararaman, W. A. Goddard III and T. A. Arias, J. Chem. Phys. 146, 114104 (2017)

This list may not be complete. Please suggest additional citations or
report any other bugs at https://github.com/shankar1729/jdftx/issues

Initialization completed successfully at t[s]:     21.51

Shifting auxilliary hamiltonian by -0.010459 to set nElectrons=225.000000
	Linear fluid (dielectric constant: 78.4, screening length: 5.74355 Bohr) occupying 0.737983 of unit cell:	Completed after 1 iterations at t[s]:     24.45

-------- Electronic minimization -----------
	Linear fluid (dielectric constant: 78.4, screening length: 5.74355 Bohr) occupying 0.737983 of unit cell:	Completed after 0 iterations at t[s]:     27.93
	FillingsUpdate:  mu: -0.171251800  nElectrons: 225.000000
ElecMinimize: Iter:   0  G: -639.299473320056563  |grad|_K:  1.877e-05  alpha:  1.000e+00
	Linear fluid (dielectric constant: 78.4, screening length: 5.74355 Bohr) occupying 0.739292 of unit cell:	Completed after 19 iterations at t[s]:     36.87
	Linear fluid (dielectric constant: 78.4, screening length: 5.74355 Bohr) occupying 0.738005 of unit cell:	Completed after 19 iterations at t[s]:     44.22
	FillingsUpdate:  mu: -0.171251800  nElectrons: 224.900512
	SubspaceRotationAdjust: set factor to 0.518
ElecMinimize: Iter:   1  G: -639.300151453777971  |grad|_K:  7.263e-06  alpha:  2.792e-02  linmin: -3.249e-02  t[s]:     56.26
	Linear fluid (dielectric constant: 78.4, screening length: 5.74355 Bohr) occupying 0.738041 of unit cell:	Completed after 10 iterations at t[s]:     63.86
	Linear fluid (dielectric constant: 78.4, screening length: 5.74355 Bohr) occupying 0.738074 of unit cell:	Completed after 10 iterations at t[s]:     69.15
	FillingsUpdate:  mu: -0.171251800  nElectrons: 224.814254
	SubspaceRotationAdjust: set factor to 0.301
ElecMinimize: Iter:   2  G: -639.300343851149478  |grad|_K:  5.946e-06  alpha:  5.352e-02  linmin:  2.648e-04  t[s]:     72.84

*************** JDFTx 1.5.0  ***************

Start date and time: Fri Jul 17 08:29:32 2020
Executable jdftx_gpu with command-line: -i Charged.in -o Charged.out
Running on hosts (process indices):  amax (0-5)
Divided in process groups (process indices):  0 (0)  1 (1)  2 (2)  3 (3)  4 (4)  5 (5)
gpuInit: Found compatible cuda device 0 'Tesla K80'
gpuInit: Found compatible cuda device 1 'Tesla K80'
gpuInit: Found compatible cuda device 2 'Tesla K80'
gpuInit: Found compatible cuda device 3 'Tesla K80'
gpuInit: Found compatible cuda device 4 'Tesla K80'
gpuInit: Found compatible cuda device 5 'Tesla K80'
gpuInit: Selected device 0
Resource initialization completed at t[s]:      6.62
Run totals: 6 processes, 24 threads, 6 GPUs


Input parsed successfully to the following command list (including defaults):

basis kpoint-dependent
cache-projectors no
coords-type Lattice
core-overlap-check none
coulomb-interaction Slab 001
coulomb-truncation-embed 0 0 0.5
davidson-band-ratio 1.1
dump End State
dump-name NbTe2.$VAR
elec-cutoff 20 100
elec-eigen-algo Davidson
elec-ex-corr gga-PBE
elec-smearing Gauss 0.0073499
electronic-minimize  \
	dirUpdateScheme      FletcherReeves \
	linminMethod         DirUpdateRecommended \
	nIterations          500 \
	history              15 \
	knormThreshold       0 \
	energyDiffThreshold  1e-08 \
	nEnergyDiff          2 \
	alphaTstart          1 \
	alphaTmin            1e-10 \
	updateTestStepSize   yes \
	alphaTreduceFactor   0.1 \
	alphaTincreaseFactor 3 \
	nAlphaAdjustMax      3 \
	wolfeEnergy          0.0001 \
	wolfeGradient        0.9 \
	fdTest               no
exchange-regularization WignerSeitzTruncated
fluid LinearPCM 298.000000 1.013250
fluid-anion F- 1 MeanFieldLJ \
	epsBulk 1 \
	pMol 0 \
	epsInf 1 \
	Pvap 0 \
	sigmaBulk 0 \
	Rvdw 2.24877 \
	Res 0 \
	tauNuc 343133
fluid-cation Na+ 1 MeanFieldLJ \
	epsBulk 1 \
	pMol 0 \
	epsInf 1 \
	Pvap 0 \
	sigmaBulk 0 \
	Rvdw 2.19208 \
	Res 0 \
	tauNuc 343133
fluid-ex-corr lda-TF lda-PZ
fluid-gummel-loop 10 1.000000e-05
fluid-minimize  \
	dirUpdateScheme      PolakRibiere \
	linminMethod         DirUpdateRecommended \
	nIterations          400 \
	history              15 \
	knormThreshold       1e-11 \
	energyDiffThreshold  0 \
	nEnergyDiff          2 \
	alphaTstart          1 \
	alphaTmin            1e-10 \
	updateTestStepSize   yes \
	alphaTreduceFactor   0.1 \
	alphaTincreaseFactor 3 \
	nAlphaAdjustMax      6 \
	wolfeEnergy          0.0001 \
	wolfeGradient        0.9 \
	fdTest               no
fluid-solvent H2O 55.338 ScalarEOS \
	epsBulk 78.4 \
	pMol 0.92466 \
	epsInf 1.77 \
	Pvap 1.06736e-10 \
	sigmaBulk 4.62e-05 \
	Rvdw 2.61727 \
	Res 1.42 \
	tauNuc 343133 \
	poleEl 15 7 1
forces-output-coords Positions
initial-state NbTe2.$VAR
ion Ta   0.213581265741119   0.713017181539666   0.503485103925054 0
ion Ta   0.546914599074454   0.713017181539666   0.503485103925054 0
ion Ta   0.880247932407790   0.713017181539666   0.503485103925054 0
ion Ta   0.118327970237015   0.284816524772206   0.496559213290441 0
ion Ta   0.451661303570351   0.284816524772206   0.496559213290441 0
ion Ta   0.784994636903679   0.284816524772206   0.496559213290441 0
ion Ta   0.332664436640978   0.998859233128369   0.500013276381867 0
ion Ta   0.665997769974314   0.998859233128369   0.500013276381867 0
ion Ta   0.999331103307650   0.998859233128369   0.500013276381867 0
ion Te   0.183421857680783   0.893533469042336   0.394852166196919 0
ion Te   0.516755191014118   0.893533469042336   0.394852166196919 0
ion Te   0.850088524347454   0.893533469042336   0.394852166196919 0
ion Te   0.148569943645626   0.104260039151055   0.605163898206613 0
ion Te   0.481903276978962   0.104260039151055   0.605163898206613 0
ion Te   0.815236610312290   0.104260039151055   0.605163898206613 0
ion Te   0.073911335904473   0.550317382062583   0.420058795913245 0
ion Te   0.407244669237801   0.550317382062583   0.420058795913245 0
ion Te   0.740578002571137   0.550317382062583   0.420058795913245 0
ion Te   0.034918096803174   0.785249694005489   0.608013393589892 0
ion Te   0.368251430136510   0.785249694005489   0.608013393589892 0
ion Te   0.701584763469846   0.785249694005489   0.608013393589892 0
ion Te   0.296968864399781   0.212521659643903   0.392050361111161 0
ion Te   0.630302197733117   0.212521659643903   0.392050361111161 0
ion Te   0.963635531066453   0.212521659643903   0.392050361111161 0
ion Te   0.258059770179321   0.447530842297486   0.579979681835748 0
ion Te   0.591393103512657   0.447530842297486   0.579979681835748 0
ion Te   0.924726436845985   0.447530842297486   0.579979681835748 0
ion-species GBRV/$ID_pbe.uspp
ion-width Ecut
ionic-minimize  \
	dirUpdateScheme      L-BFGS \
	linminMethod         DirUpdateRecommended \
	nIterations          0 \
	history              15 \
	knormThreshold       0.0001 \
	energyDiffThreshold  1e-06 \
	nEnergyDiff          2 \
	alphaTstart          1 \
	alphaTmin            1e-10 \
	updateTestStepSize   yes \
	alphaTreduceFactor   0.1 \
	alphaTincreaseFactor 3 \
	nAlphaAdjustMax      3 \
	wolfeEnergy          0.0001 \
	wolfeGradient        0.9 \
	fdTest               no
kpoint   0.000000000000   0.000000000000   0.000000000000  1.00000000000000
kpoint-folding 3 3 1 
latt-move-scale 1 1 1
latt-scale 1 1 1 
lattice Triclinic 19.9959 18.365 36.0545 90 90 79.6035
lattice-minimize  \
	dirUpdateScheme      L-BFGS \
	linminMethod         DirUpdateRecommended \
	nIterations          0 \
	history              15 \
	knormThreshold       0 \
	energyDiffThreshold  1e-06 \
	nEnergyDiff          2 \
	alphaTstart          1 \
	alphaTmin            1e-10 \
	updateTestStepSize   yes \
	alphaTreduceFactor   0.1 \
	alphaTincreaseFactor 3 \
	nAlphaAdjustMax      3 \
	wolfeEnergy          0.0001 \
	wolfeGradient        0.9 \
	fdTest               no
lcao-params -1 1e-06 0.0073499
pcm-variant CANDLE
spintype no-spin
subspace-rotation-factor 1 yes
symmetries automatic
symmetry-threshold 0.0001
target-mu -0.24475 no




---------- Setting up symmetries ----------

Found 4 point-group symmetries of the bravais lattice
Found 3 space-group symmetries with basis
Applied RMS atom displacement 3.86331e-14 bohrs to make symmetries exact.

---------- Initializing the Grid ----------
R = 
[    19.9959    3.31413          0  ]
[          0    18.0635          0  ]
[          0          0    36.0545  ]
unit cell volume = 13022.7
G =
[   0.314224  -0.057651          0  ]
[          0   0.347839          0  ]
[          0          0   0.174269  ]
Minimum fftbox size, Smin = [  92  84  164  ]
Chosen fftbox size, S = [  96  84  168  ]

---------- Initializing tighter grid for wavefunction operations ----------
R = 
[    19.9959    3.31413          0  ]
[          0    18.0635          0  ]
[          0          0    36.0545  ]
unit cell volume = 13022.7
G =
[   0.314224  -0.057651          0  ]
[          0   0.347839          0  ]
[          0          0   0.174269  ]
Minimum fftbox size, Smin = [  84  76  148  ]
Chosen fftbox size, S = [  84  80  150  ]

---------- Exchange Correlation functional ----------
Initalized PBE GGA exchange.
Initalized PBE GGA correlation.

---------- Setting up pseudopotentials ----------
Width of ionic core gaussian charges (only for fluid interactions / plotting) set to 0.397384

Reading pseudopotential file '/home/guoxy/vasp/jdftx-1.5.0/build/pseudopotentials/GBRV/ta_pbe.uspp':
  Title: Ta.  Created by USPP 7.3.6 on 14-9-2013
  Reference state energy: -70.583193.  13 valence electrons in orbitals:
    |500>  occupation: 2  eigenvalue: -2.682396
    |510>  occupation: 6  eigenvalue: -1.447928
    |520>  occupation: 3  eigenvalue: -0.131987
    |600>  occupation: 2  eigenvalue: -0.199982
    |610>  occupation: 0  eigenvalue: -0.051129
  lMax: 3  lLocal: 3  QijEcut: 5
  7 projectors sampled on a log grid with 667 points:
    l: 0  eig: -2.682397  rCut: 1.4
    l: 0  eig: -0.199983  rCut: 1.4
    l: 1  eig: -1.447928  rCut: 1.5
    l: 1  eig: -0.051130  rCut: 1.5
    l: 2  eig: -0.131987  rCut: 1.7
    l: 2  eig: 0.150000  rCut: 1.7
    l: 3  eig: 0.250000  rCut: 2.3
  Partial core density with radius 1.2
  Transforming core density to a uniform radial grid of dG=0.02 with 1369 points.
  Transforming local potential to a uniform radial grid of dG=0.02 with 1369 points.
  Transforming nonlocal projectors to a uniform radial grid of dG=0.02 with 432 points.
  Transforming density augmentations to a uniform radial grid of dG=0.02 with 1369 points.
  Transforming atomic orbitals to a uniform radial grid of dG=0.02 with 432 points.
  Core radius for overlap checks: 2.30 bohrs.

Reading pseudopotential file '/home/guoxy/vasp/jdftx-1.5.0/build/pseudopotentials/GBRV/te_pbe.uspp':
  Title: Te.  Created by USPP 7.3.6 on 14-9-2013
  Reference state energy: -13.134220.  6 valence electrons in orbitals:
    |500>  occupation: 2  eigenvalue: -0.555231
    |510>  occupation: 4  eigenvalue: -0.218781
  lMax: 2  lLocal: 2  QijEcut: 5
  5 projectors sampled on a log grid with 723 points:
    l: 0  eig: -0.555229  rCut: 2.1
    l: 0  eig: 1.000000  rCut: 2.1
    l: 1  eig: -0.218780  rCut: 2.1
    l: 1  eig: 1.000000  rCut: 2.1
    l: 2  eig: 1.000000  rCut: 2.6
  Partial core density with radius 1.8
  Transforming core density to a uniform radial grid of dG=0.02 with 1369 points.
  Transforming local potential to a uniform radial grid of dG=0.02 with 1369 points.
  Transforming nonlocal projectors to a uniform radial grid of dG=0.02 with 432 points.
  Transforming density augmentations to a uniform radial grid of dG=0.02 with 1369 points.
  Transforming atomic orbitals to a uniform radial grid of dG=0.02 with 432 points.
  Core radius for overlap checks: 2.60 bohrs.

Initialized 2 species with 27 total atoms.

Folded 1 k-points by 3x3x1 to 9 k-points.

---------- Setting up k-points, bands, fillings ----------
Adding inversion symmetry to k-mesh for non-inversion-symmetric unit cell.
Reduced to 5 k-points under symmetry. 
Computing the number of bands and number of electrons
Reading initial fillings from file NbTe2.fillings.
nElectrons: 225.000000   nBands: 189   nStates: 5

----- Setting up reduced wavefunction bases (one per k-point) -----
average nbasis = 55646.778 , ideal nbasis = 55634.015

---------- Setting up coulomb interaction ----------
Fluid mode embedding: using embedded box, but periodic Coulomb kernel.
(Fluid response is responsible for (approximate) separation between periodic images.)
Setting up double-sized grid for truncated Coulomb potentials:
R = 
[    19.9959    3.31413          0  ]
[          0    18.0635          0  ]
[          0          0    72.1089  ]
unit cell volume = 26045.4
G =
[   0.314224  -0.057651          0  ]
[          0   0.347839          0  ]
[          0          0  0.0871346  ]
Chosen fftbox size, S = [  96  84  336  ]
Integer grid location selected as the embedding center:
   Grid: [  0  0  84  ]
   Lattice: [  0  0  0.5  ]
   Cartesian: [  0  0  18.0272  ]
Constructing Wigner-Seitz cell: 8 faces (6 quadrilaterals, 2 hexagons)
Range-separation parameter for embedded mesh potentials due to point charges: 0.589883 bohrs.

Initializing van der Waals corrections
	NOTE: vdW corrections apply only for interactions with fluid.
	Ta:  C6:  815.23 Eh-a0^6  R0: 3.326 a0 (WARNING: beyond Grimme's data set)
	Te:  C6:  550.54 Eh-a0^6  R0: 3.575 a0

---------- Setting up ewald sum ----------
Optimum gaussian width for ewald sums = 6.827472 bohr.
Real space sum over 605 unit cells with max indices [  5  5  2  ]
Reciprocal space sum over 5915 terms with max indices [  6  6  17  ]

---------- Allocating electronic variables ----------
Initializing wave functions:  reading from 'NbTe2.wfns'
----- createFluidSolver() ----- (Fluid-side solver setup)
   Initializing fluid molecule 'H2O'
     Initializing site 'O'
       Electron density: proportional to exp(-r/0.36935)*erfc((r-0.51523)/0.36823) with norm 6.826
       Charge density: gaussian nuclear width 0.478731 with net site charge 0.826
       Polarizability: cuspless exponential with width 0.32 and norm 3.73
       Hard sphere radius: 2.57003 bohrs
       Positions in reference frame:
         [ +0.000000 +0.000000 +0.000000 ]
     Initializing site 'H'
       Electron density: proportional to exp(-r/0.34641)*erfc((r-0)/0.390882) with norm 0.587
       Charge density: gaussian nuclear width 0.377945 with net site charge -0.413
       Polarizability: cuspless exponential with width 0.39 and norm 3.3
       Positions in reference frame:
         [ +0.000000 -1.441945 +1.122523 ]
         [ +0.000000 +1.441945 +1.122523 ]
     Net charge: 0   dipole magnitude: 0.927204
     Initializing spherical shell mfKernel with radius 2.61727 Bohr
     deltaS corrections:
       site 'O': -7.54299
       site 'H': -6.83917
   Initializing fluid molecule 'Na+'
     Initializing site 'Na'
       Electron density: proportional to exp(-r/0.19682)*erfc((r-0.71491)/0.41314) with norm 8.1383
       Charge density: gaussian nuclear width 0.365347 with net site charge -1
       Hard sphere radius: 1.86327 bohrs
       Positions in reference frame:
         [ +0.000000 +0.000000 +0.000000 ]
     Net charge: -1   dipole magnitude: 0
     Initializing gaussian mfKernel with width: 1.55004 Bohr
     deltaS corrections:
       site 'Na': -22.3555
   Initializing fluid molecule 'F-'
     Initializing site 'F'
       Electron density: proportional to exp(-r/0.38886)*erfc((r-0)/0.438782) with norm 8
       Charge density: gaussian nuclear width 0.374796 with net site charge 1
       Hard sphere radius: 2.39995 bohrs
       Positions in reference frame:
         [ +0.000000 +0.000000 +0.000000 ]
     Net charge: 1   dipole magnitude: 0
     Initializing gaussian mfKernel with width: 1.59012 Bohr
     deltaS corrections:
       site 'F': -9.04335

Correction to mu due to finite nuclear width = -0.00857138
   Cavity determined by nc: 0.00142 and sigma: 0.707107
   Nonlocal vdW cavity from gaussian model electron density with norm = 8 and sigma = 0.993594 bohr
   Charge asymmetry in cavity with sensitivity pCavity = 36.5 e-bohr/Eh
   Electrostatic cavity expanded by eta = 1.46 bohrs
   Weighted density cavitation model constrained by Nbulk: 0.0049383 bohr^-3, Pvap: 3.14029 kPa, Rvdw: 2.61727 bohr and sigmaBulk: 4.62e-05 Eh/bohr^2 at T: 298 K.
   Weighted density dispersion model using vdW pair potentials with single solvent site with sqrtC6eff: 0.77 SI.
Reading fluid state from 'NbTe2.fluidState'


---- Citations for features of the code used in this run ----

   Software package:
      R. Sundararaman, K. Letchworth-Weaver, K.A. Schwarz, D. Gunceler, Y. Ozhabes and T.A. Arias, 'JDFTx: software for joint density-functional theory', SoftwareX 6, 278 (2017)

   gga-PBE exchange-correlation functional:
      J.P. Perdew, K. Burke and M. Ernzerhof, Phys. Rev. Lett. 77, 3865 (1996)

   Pseudopotentials:
      KF Garrity, JW Bennett, KM Rabe and D Vanderbilt, Comput. Mater. Sci. 81, 446 (2014)

   Truncated Coulomb potentials:
      R. Sundararaman and T.A. Arias, Phys. Rev. B 87, 165122 (2013)

   Van der Waals correction pair-potentials:
      S. Grimme, J. Comput. Chem. 27, 1787 (2006)

   Charge-asymmetric nonlocally-determined local-electric (CANDLE) solvation model:
      R. Sundararaman and W.A. Goddard III, J. Chem. Phys. 142, 064107 (2015)

   Total energy minimization with Auxiliary Hamiltonian:
      C. Freysoldt, S. Boeck, and J. Neugebauer, Phys. Rev. B 79, 241103(R) (2009)

   Grand-canonical (fixed-potential) DFT:
      R. Sundararaman, W. A. Goddard III and T. A. Arias, J. Chem. Phys. 146, 114104 (2017)

This list may not be complete. Please suggest additional citations or
report any other bugs at https://github.com/shankar1729/jdftx/issues

Initialization completed successfully at t[s]:     15.83

Shifting auxilliary hamiltonian by -0.083957 to set nElectrons=225.000000
	Linear fluid (dielectric constant: 78.4, screening length: 5.74355 Bohr) occupying 0.737983 of unit cell:	Completed after 1 iterations at t[s]:     21.47

-------- Electronic minimization -----------
	Linear fluid (dielectric constant: 78.4, screening length: 5.74355 Bohr) occupying 0.737983 of unit cell:	Completed after 0 iterations at t[s]:     28.03
	FillingsUpdate:  mu: -0.244750400  nElectrons: 225.000000
ElecMinimize: Iter:   0  G: -622.762288320046537  |grad|_K:  1.505e-04  alpha:  1.000e+00
	Linear fluid (dielectric constant: 78.4, screening length: 5.74355 Bohr) occupying 0.749551 of unit cell:	Completed after 24 iterations at t[s]:     50.21
	Linear fluid (dielectric constant: 78.4, screening length: 5.74355 Bohr) occupying 0.738095 of unit cell:	Completed after 22 iterations at t[s]:     63.64
	FillingsUpdate:  mu: -0.244750400  nElectrons: 224.586933
	SubspaceRotationAdjust: set factor to 0.502
ElecMinimize: Iter:   1  G: -622.790631726858351  |grad|_K:  9.941e-05  alpha:  1.421e-02  linmin: -1.117e-01  t[s]:     70.77
	Linear fluid (dielectric constant: 78.4, screening length: 5.74355 Bohr) occupying 0.738281 of unit cell:	Completed after 15 iterations at t[s]:     78.43
	Linear fluid (dielectric constant: 78.4, screening length: 5.74355 Bohr) occupying 0.738440 of unit cell:	Completed after 14 iterations at t[s]:     90.98
	FillingsUpdate:  mu: -0.244750400  nElectrons: 223.728322
	SubspaceRotationAdjust: set factor to 0.296
ElecMinimize: Iter:   2  G: -622.812062284995022  |grad|_K:  4.300e-05  alpha:  2.584e-02  linmin:  4.252e-03  t[s]:     98.93
	Linear fluid (dielectric constant: 78.4, screening length: 5.74355 Bohr) occupying 0.738636 of unit cell:	Completed after 12 iterations at t[s]:    108.55
ElecMinimize: 	Predicted alpha/alphaT>3.000000, increasing alphaT to 7.750991e-02.
	Linear fluid (dielectric constant: 78.4, screening length: 5.74355 Bohr) occupying 0.739026 of unit cell:	Completed after 13 iterations at t[s]:    122.11
	Linear fluid (dielectric constant: 78.4, screening length: 5.74355 Bohr) occupying 0.739708 of unit cell:	Completed after 13 iterations at t[s]:    132.91
	FillingsUpdate:  mu: -0.244750400  nElectrons: 222.849281
	SubspaceRotationAdjust: set factor to 0.169
ElecMinimize: Iter:   3  G: -622.825337559256354  |grad|_K:  5.917e-05  alpha:  1.681e-01  linmin:  1.379e-03  t[s]:    140.90
	Linear fluid (dielectric constant: 78.4, screening length: 5.74355 Bohr) occupying 0.742494 of unit cell:	Completed after 16 iterations at t[s]:    151.17
	Linear fluid (dielectric constant: 78.4, screening length: 5.74355 Bohr) occupying 0.741814 of unit cell:	Completed after 14 iterations at t[s]:    164.81
	FillingsUpdate:  mu: -0.244750400  nElectrons: 222.168589
	SubspaceRotationAdjust: set factor to 0.116
	SubspaceRotationAdjust: resetting CG because factor has changed by 0.11557
	Linear fluid (dielectric constant: 78.4, screening length: 5.74355 Bohr) occupying 0.741814 of unit cell:	Completed after 0 iterations at t[s]:    177.15
ElecMinimize: 	State modified externally: resetting search direction.
ElecMinimize: Iter:   4  G: -622.846729152358080  |grad|_K:  3.401e-05  alpha:  1.260e-01
	Linear fluid (dielectric constant: 78.4, screening length: 5.74355 Bohr) occupying 0.742082 of unit cell:	Completed after 13 iterations at t[s]:    192.63
	Linear fluid (dielectric constant: 78.4, screening length: 5.74355 Bohr) occupying 0.742486 of unit cell:	Completed after 15 iterations at t[s]:    203.44
	FillingsUpdate:  mu: -0.244750400  nElectrons: 222.734675
	SubspaceRotationAdjust: set factor to 0.0451
ElecMinimize: Iter:   5  G: -622.866227595944451  |grad|_K:  1.601e-05  alpha:  3.148e-01  linmin: -3.250e-03  t[s]:    212.92
	Linear fluid (dielectric constant: 78.4, screening length: 5.74355 Bohr) occupying 0.743181 of unit cell:	Completed after 8 iterations at t[s]:    222.45
	Linear fluid (dielectric constant: 78.4, screening length: 5.74355 Bohr) occupying 0.744218 of unit cell:	Completed after 12 iterations at t[s]:    234.46
	FillingsUpdate:  mu: -0.244750400  nElectrons: 222.576983
	SubspaceRotationAdjust: set factor to 0.0553
ElecMinimize: Iter:   6  G: -622.877153448258582  |grad|_K:  9.235e-06  alpha:  7.854e-01  linmin:  6.736e-05  t[s]:    241.54
	Linear fluid (dielectric constant: 78.4, screening length: 5.74355 Bohr) occupying 0.745371 of unit cell:	Completed after 12 iterations at t[s]:    249.14
	Linear fluid (dielectric constant: 78.4, screening length: 5.74355 Bohr) occupying 0.745692 of unit cell:	Completed after 10 iterations at t[s]:    259.71
	FillingsUpdate:  mu: -0.244750400  nElectrons: 222.451926
	SubspaceRotationAdjust: set factor to 0.0678
ElecMinimize: Iter:   7  G: -622.881681066567808  |grad|_K:  7.923e-06  alpha:  1.008e+00  linmin: -8.109e-05  t[s]:    267.95
	Linear fluid (dielectric constant: 78.4, screening length: 5.74355 Bohr) occupying 0.746995 of unit cell:	Completed after 13 iterations at t[s]:    278.54
	Linear fluid (dielectric constant: 78.4, screening length: 5.74355 Bohr) occupying 0.747012 of unit cell:	Completed after 2 iterations at t[s]:    286.44
	FillingsUpdate:  mu: -0.244750400  nElectrons: 222.262965
	SubspaceRotationAdjust: set factor to 0.0845
ElecMinimize: Iter:   8  G: -622.885071011848254  |grad|_K:  7.411e-06  alpha:  1.022e+00  linmin: -3.953e-05  t[s]:    293.80
	Linear fluid (dielectric constant: 78.4, screening length: 5.74355 Bohr) occupying 0.748051 of unit cell:	Completed after 12 iterations at t[s]:    301.96
	Linear fluid (dielectric constant: 78.4, screening length: 5.74355 Bohr) occupying 0.747940 of unit cell:	Completed after 10 iterations at t[s]:    312.84
	FillingsUpdate:  mu: -0.244750400  nElectrons: 222.055165
	SubspaceRotationAdjust: set factor to 0.103
ElecMinimize: Iter:   9  G: -622.887698103607249  |grad|_K:  7.001e-06  alpha:  9.063e-01  linmin: -1.030e-05  t[s]:    320.40
	Linear fluid (dielectric constant: 78.4, screening length: 5.74355 Bohr) occupying 0.748693 of unit cell:	Completed after 11 iterations at t[s]:    329.61
	Linear fluid (dielectric constant: 78.4, screening length: 5.74355 Bohr) occupying 0.748636 of unit cell:	Completed after 3 iterations at t[s]:    337.11
	FillingsUpdate:  mu: -0.244750400  nElectrons: 221.923569
	SubspaceRotationAdjust: set factor to 0.117
ElecMinimize: Iter:  10  G: -622.889848048830117  |grad|_K:  7.745e-06  alpha:  8.324e-01  linmin: -1.797e-05  t[s]:    345.61
	Linear fluid (dielectric constant: 78.4, screening length: 5.74355 Bohr) occupying 0.749469 of unit cell:	Completed after 8 iterations at t[s]:    353.69
	Linear fluid (dielectric constant: 78.4, screening length: 5.74355 Bohr) occupying 0.749298 of unit cell:	Completed after 4 iterations at t[s]:    361.83
	FillingsUpdate:  mu: -0.244750400  nElectrons: 221.798146
	SubspaceRotationAdjust: set factor to 0.128
ElecMinimize: Iter:  11  G: -622.891891684593929  |grad|_K:  7.336e-06  alpha:  6.466e-01  linmin: -9.815e-06  t[s]:    370.06
	Linear fluid (dielectric constant: 78.4, screening length: 5.74355 Bohr) occupying 0.749934 of unit cell:	Completed after 11 iterations at t[s]:    380.28
	Linear fluid (dielectric constant: 78.4, screening length: 5.74355 Bohr) occupying 0.749930 of unit cell:	Completed after 0 iterations at t[s]:    388.75
	FillingsUpdate:  mu: -0.244750400  nElectrons: 221.674999
	SubspaceRotationAdjust: set factor to 0.135
ElecMinimize: Iter:  12  G: -622.893712226034722  |grad|_K:  6.226e-06  alpha:  6.413e-01  linmin: -1.865e-05  t[s]:    395.55
	Linear fluid (dielectric constant: 78.4, screening length: 5.74355 Bohr) occupying 0.750420 of unit cell:	Completed after 10 iterations at t[s]:    402.77
	Linear fluid (dielectric constant: 78.4, screening length: 5.74355 Bohr) occupying 0.750379 of unit cell:	Completed after 7 iterations at t[s]:    413.70
	FillingsUpdate:  mu: -0.244750400  nElectrons: 221.654588
	SubspaceRotationAdjust: set factor to 0.137
ElecMinimize: Iter:  13  G: -622.894908992933892  |grad|_K:  3.813e-06  alpha:  5.848e-01  linmin: -1.964e-05  t[s]:    421.56
	Linear fluid (dielectric constant: 78.4, screening length: 5.74355 Bohr) occupying 0.750534 of unit cell:	Completed after 10 iterations at t[s]:    429.59
	Linear fluid (dielectric constant: 78.4, screening length: 5.74355 Bohr) occupying 0.750551 of unit cell:	Completed after 3 iterations at t[s]:    440.01
	FillingsUpdate:  mu: -0.244750400  nElectrons: 221.626475
	SubspaceRotationAdjust: set factor to 0.137
ElecMinimize: Iter:  14  G: -622.895408252887819  |grad|_K:  2.387e-06  alpha:  6.506e-01  linmin: -2.128e-05  t[s]:    447.30
	Linear fluid (dielectric constant: 78.4, screening length: 5.74355 Bohr) occupying 0.750578 of unit cell:	Completed after 12 iterations at t[s]:    455.13
	Linear fluid (dielectric constant: 78.4, screening length: 5.74355 Bohr) occupying 0.750574 of unit cell:	Completed after 6 iterations at t[s]:    464.36
	FillingsUpdate:  mu: -0.244750400  nElectrons: 221.654382
	SubspaceRotationAdjust: set factor to 0.117
ElecMinimize: Iter:  15  G: -622.895574457978114  |grad|_K:  1.691e-06  alpha:  5.524e-01  linmin:  6.861e-05  t[s]:    472.34
	Linear fluid (dielectric constant: 78.4, screening length: 5.74355 Bohr) occupying 0.750550 of unit cell:	Completed after 10 iterations at t[s]:    480.40
	Linear fluid (dielectric constant: 78.4, screening length: 5.74355 Bohr) occupying 0.750554 of unit cell:	Completed after 8 iterations at t[s]:    491.24
	FillingsUpdate:  mu: -0.244750400  nElectrons: 221.639266
	SubspaceRotationAdjust: set factor to 0.0955
ElecMinimize: Iter:  16  G: -622.895643487151233  |grad|_K:  1.112e-06  alpha:  4.600e-01  linmin:  9.362e-06  t[s]:    498.08
	Linear fluid (dielectric constant: 78.4, screening length: 5.74355 Bohr) occupying 0.750530 of unit cell:	Completed after 8 iterations at t[s]:    505.83
	Linear fluid (dielectric constant: 78.4, screening length: 5.74355 Bohr) occupying 0.750527 of unit cell:	Completed after 0 iterations at t[s]:    513.91
	FillingsUpdate:  mu: -0.244750400  nElectrons: 221.648732
	SubspaceRotationAdjust: set factor to 0.116
ElecMinimize: Iter:  17  G: -622.895677832016531  |grad|_K:  7.277e-07  alpha:  5.271e-01  linmin: -8.731e-05  t[s]:    521.45
	Linear fluid (dielectric constant: 78.4, screening length: 5.74355 Bohr) occupying 0.750508 of unit cell:	Completed after 7 iterations at t[s]:    528.87
	Linear fluid (dielectric constant: 78.4, screening length: 5.74355 Bohr) occupying 0.750507 of unit cell:	Completed after 0 iterations at t[s]:    536.94
	FillingsUpdate:  mu: -0.244750400  nElectrons: 221.657720
	SubspaceRotationAdjust: set factor to 0.125
ElecMinimize: Iter:  18  G: -622.895693594367003  |grad|_K:  5.426e-07  alpha:  5.595e-01  linmin: -2.397e-04  t[s]:    543.69
	Linear fluid (dielectric constant: 78.4, screening length: 5.74355 Bohr) occupying 0.750491 of unit cell:	Completed after 7 iterations at t[s]:    550.09
	Linear fluid (dielectric constant: 78.4, screening length: 5.74355 Bohr) occupying 0.750491 of unit cell:	Completed after 0 iterations at t[s]:    556.74
	FillingsUpdate:  mu: -0.244750400  nElectrons: 221.653919
	SubspaceRotationAdjust: set factor to 0.121
ElecMinimize: Iter:  19  G: -622.895702204387021  |grad|_K:  4.206e-07  alpha:  5.419e-01  linmin:  8.405e-05  t[s]:    561.41
	Linear fluid (dielectric constant: 78.4, screening length: 5.74355 Bohr) occupying 0.750481 of unit cell:	Completed after 4 iterations at t[s]:    564.70
	Linear fluid (dielectric constant: 78.4, screening length: 5.74355 Bohr) occupying 0.750478 of unit cell:	Completed after 4 iterations at t[s]:    568.77
	FillingsUpdate:  mu: -0.244750400  nElectrons: 221.660915
	SubspaceRotationAdjust: set factor to 0.147
ElecMinimize: Iter:  20  G: -622.895708410082079  |grad|_K:  3.319e-07  alpha:  6.826e-01  linmin:  1.370e-05  t[s]:    572.30
	Linear fluid (dielectric constant: 78.4, screening length: 5.74355 Bohr) occupying 0.750469 of unit cell:	Completed after 3 iterations at t[s]:    575.54
	Linear fluid (dielectric constant: 78.4, screening length: 5.74355 Bohr) occupying 0.750468 of unit cell:	Completed after 0 iterations at t[s]:    579.51
	FillingsUpdate:  mu: -0.244750400  nElectrons: 221.665345
	SubspaceRotationAdjust: set factor to 0.181
ElecMinimize: Iter:  21  G: -622.895712957751698  |grad|_K:  2.896e-07  alpha:  7.854e-01  linmin: -2.530e-05  t[s]:    583.11
	Linear fluid (dielectric constant: 78.4, screening length: 5.74355 Bohr) occupying 0.750459 of unit cell:	Completed after 2 iterations at t[s]:    586.64
	Linear fluid (dielectric constant: 78.4, screening length: 5.74355 Bohr) occupying 0.750460 of unit cell:	Completed after 0 iterations at t[s]:    590.45
	FillingsUpdate:  mu: -0.244750400  nElectrons: 221.665668
	SubspaceRotationAdjust: set factor to 0.19
ElecMinimize: Iter:  22  G: -622.895716080379202  |grad|_K:  2.585e-07  alpha:  6.987e-01  linmin:  2.893e-05  t[s]:    594.60
	Linear fluid (dielectric constant: 78.4, screening length: 5.74355 Bohr) occupying 0.750451 of unit cell:	Completed after 3 iterations at t[s]:    597.83
	Linear fluid (dielectric constant: 78.4, screening length: 5.74355 Bohr) occupying 0.750453 of unit cell:	Completed after 0 iterations at t[s]:    601.67
	FillingsUpdate:  mu: -0.244750400  nElectrons: 221.670020
	SubspaceRotationAdjust: set factor to 0.182
ElecMinimize: Iter:  23  G: -622.895718014059526  |grad|_K:  2.028e-07  alpha:  5.544e-01  linmin:  4.481e-05  t[s]:    605.98
	Linear fluid (dielectric constant: 78.4, screening length: 5.74355 Bohr) occupying 0.750449 of unit cell:	Completed after 2 iterations at t[s]:    609.72
	Linear fluid (dielectric constant: 78.4, screening length: 5.74355 Bohr) occupying 0.750449 of unit cell:	Completed after 0 iterations at t[s]:    614.44
	FillingsUpdate:  mu: -0.244750400  nElectrons: 221.669250
	SubspaceRotationAdjust: set factor to 0.172
ElecMinimize: Iter:  24  G: -622.895719032793977  |grad|_K:  1.381e-07  alpha:  4.877e-01  linmin: -2.631e-05  t[s]:    619.35
	Linear fluid (dielectric constant: 78.4, screening length: 5.74355 Bohr) occupying 0.750447 of unit cell:	Completed after 1 iterations at t[s]:    623.05
	Linear fluid (dielectric constant: 78.4, screening length: 5.74355 Bohr) occupying 0.750447 of unit cell:	Completed after 0 iterations at t[s]:    626.68
	FillingsUpdate:  mu: -0.244750400  nElectrons: 221.670678
	SubspaceRotationAdjust: set factor to 0.209
ElecMinimize: Iter:  25  G: -622.895719667014760  |grad|_K:  9.383e-08  alpha:  6.142e-01  linmin: -4.789e-05  t[s]:    630.34
	Linear fluid (dielectric constant: 78.4, screening length: 5.74355 Bohr) occupying 0.750446 of unit cell:	Completed after 1 iterations at t[s]:    633.19
	Linear fluid (dielectric constant: 78.4, screening length: 5.74355 Bohr) occupying 0.750446 of unit cell:	Completed after 0 iterations at t[s]:    637.28
	FillingsUpdate:  mu: -0.244750400  nElectrons: 221.671501
	SubspaceRotationAdjust: set factor to 0.167
ElecMinimize: Iter:  26  G: -622.895719847623241  |grad|_K:  9.743e-08  alpha:  4.220e-01  linmin: -5.279e-05  t[s]:    641.58
	Linear fluid (dielectric constant: 78.4, screening length: 5.74355 Bohr) occupying 0.750445 of unit cell:	Completed after 3 iterations at t[s]:    644.83
	Linear fluid (dielectric constant: 78.4, screening length: 5.74355 Bohr) occupying 0.750446 of unit cell:	Completed after 0 iterations at t[s]:    648.90
	FillingsUpdate:  mu: -0.244750400  nElectrons: 221.670306
	SubspaceRotationAdjust: set factor to 0.111
ElecMinimize: Iter:  27  G: -622.895719989582517  |grad|_K:  6.761e-08  alpha:  2.641e-01  linmin:  1.458e-04  t[s]:    653.18
	Linear fluid (dielectric constant: 78.4, screening length: 5.74355 Bohr) occupying 0.750445 of unit cell:	Completed after 0 iterations at t[s]:    656.90
	Linear fluid (dielectric constant: 78.4, screening length: 5.74355 Bohr) occupying 0.750445 of unit cell:	Completed after 0 iterations at t[s]:    661.52
	FillingsUpdate:  mu: -0.244750400  nElectrons: 221.670430
	SubspaceRotationAdjust: set factor to 0.154
ElecMinimize: Iter:  28  G: -622.895720087386962  |grad|_K:  4.909e-08  alpha:  4.843e-01  linmin:  3.046e-07  t[s]:    665.44
	Linear fluid (dielectric constant: 78.4, screening length: 5.74355 Bohr) occupying 0.750445 of unit cell:	Completed after 2 iterations at t[s]:    668.97
	Linear fluid (dielectric constant: 78.4, screening length: 5.74355 Bohr) occupying 0.750445 of unit cell:	Completed after 0 iterations at t[s]:    673.29
	FillingsUpdate:  mu: -0.244750400  nElectrons: 221.670818
	SubspaceRotationAdjust: set factor to 0.123
ElecMinimize: Iter:  29  G: -622.895720092039710  |grad|_K:  5.336e-08  alpha:  2.225e-01  linmin:  3.992e-05  t[s]:    677.21
	Linear fluid (dielectric constant: 78.4, screening length: 5.74355 Bohr) occupying 0.750445 of unit cell:	Completed after 0 iterations at t[s]:    680.10
	Linear fluid (dielectric constant: 78.4, screening length: 5.74355 Bohr) occupying 0.750445 of unit cell:	Completed after 0 iterations at t[s]:    684.06
	FillingsUpdate:  mu: -0.244750400  nElectrons: 221.670513
	SubspaceRotationAdjust: set factor to 0.12
ElecMinimize: Iter:  30  G: -622.895720139317177  |grad|_K:  4.995e-08  alpha:  3.338e-01  linmin:  6.146e-08  t[s]:    688.19
	Linear fluid (dielectric constant: 78.4, screening length: 5.74355 Bohr) occupying 0.750444 of unit cell:	Completed after 3 iterations at t[s]:    692.09
	Linear fluid (dielectric constant: 78.4, screening length: 5.74355 Bohr) occupying 0.750445 of unit cell:	Completed after 0 iterations at t[s]:    695.90
	FillingsUpdate:  mu: -0.244750400  nElectrons: 221.670161
	SubspaceRotationAdjust: set factor to 0.0805
ElecMinimize: Iter:  31  G: -622.895720143545645  |grad|_K:  4.998e-08  alpha:  1.119e-01  linmin:  2.417e-04  t[s]:    699.32
	Linear fluid (dielectric constant: 78.4, screening length: 5.74355 Bohr) occupying 0.750444 of unit cell:	Completed after 0 iterations at t[s]:    702.03
	Linear fluid (dielectric constant: 78.4, screening length: 5.74355 Bohr) occupying 0.750444 of unit cell:	Completed after 0 iterations at t[s]:    705.67
	FillingsUpdate:  mu: -0.244750400  nElectrons: 221.670053
	SubspaceRotationAdjust: set factor to 0.0748
ElecMinimize: Iter:  32  G: -622.895720151386513  |grad|_K:  4.108e-08  alpha:  1.532e-01  linmin: -3.099e-07  t[s]:    709.88
ElecMinimize: Converged (|Delta G|<1.000000e-08 for 2 iters).
Setting wave functions to eigenvectors of Hamiltonian

# Ionic positions in lattice coordinates:
ion Ta   0.213581265741121   0.713017181539666   0.503485103925054 0
ion Ta   0.546914599074454   0.713017181539666   0.503485103925054 0
ion Ta   0.880247932407788   0.713017181539666   0.503485103925054 0
ion Ta   0.118327970237015   0.284816524772206   0.496559213290441 0
ion Ta   0.451661303570348   0.284816524772206   0.496559213290441 0
ion Ta   0.784994636903682   0.284816524772206   0.496559213290441 0
ion Ta   0.332664436640980   0.998859233128369   0.500013276381867 0
ion Ta   0.665997769974314   0.998859233128369   0.500013276381867 0
ion Ta   0.999331103307647   0.998859233128369   0.500013276381867 0
ion Te   0.183421857680785   0.893533469042336   0.394852166196919 0
ion Te   0.516755191014118   0.893533469042336   0.394852166196919 0
ion Te   0.850088524347452   0.893533469042336   0.394852166196919 0
ion Te   0.148569943645626   0.104260039151055   0.605163898206613 0
ion Te   0.481903276978959   0.104260039151055   0.605163898206613 0
ion Te   0.815236610312292   0.104260039151055   0.605163898206613 0
ion Te   0.073911335904470   0.550317382062583   0.420058795913245 0
ion Te   0.407244669237804   0.550317382062583   0.420058795913245 0
ion Te   0.740578002571137   0.550317382062583   0.420058795913245 0
ion Te   0.034918096803177   0.785249694005489   0.608013393589892 0
ion Te   0.368251430136510   0.785249694005489   0.608013393589892 0
ion Te   0.701584763469843   0.785249694005489   0.608013393589892 0
ion Te   0.296968864399784   0.212521659643903   0.392050361111161 0
ion Te   0.630302197733117   0.212521659643903   0.392050361111161 0
ion Te   0.963635531066451   0.212521659643903   0.392050361111161 0
ion Te   0.258059770179321   0.447530842297486   0.579979681835748 0
ion Te   0.591393103512654   0.447530842297486   0.579979681835748 0
ion Te   0.924726436845988   0.447530842297486   0.579979681835748 0


# Forces in Lattice coordinates:
force Ta  -0.001653612203035  -0.099230057315734  -0.113824167199773 0
force Ta  -0.001653612203035  -0.099230057315734  -0.113824167199773 0
force Ta  -0.001653612203035  -0.099230057315734  -0.113824167199773 0
force Ta   0.001890653600409   0.099837431270479   0.114248295484202 0
force Ta   0.001890653600409   0.099837431270479   0.114248295484202 0
force Ta   0.001890653600409   0.099837431270479   0.114248295484202 0
force Ta  -0.000447682968442   0.000792554736776   0.000617818059339 0
force Ta  -0.000447682968442   0.000792554736776   0.000617818059339 0
force Ta  -0.000447682968442   0.000792554736776   0.000617818059339 0
force Te   0.000962123727412   0.047689842341097  -0.099837310861879 0
force Te   0.000962123727412   0.047689842341097  -0.099837310861879 0
force Te   0.000962123727412   0.047689842341095  -0.099837310861879 0
force Te  -0.001431133906302  -0.048023313814926   0.100028868330939 0
force Te  -0.001431133906302  -0.048023313814926   0.100028868331053 0
force Te  -0.001431133906302  -0.048023313814926   0.100028868331053 0
force Te   0.001648270322821   0.025127588217174   0.122682976192459 0
force Te   0.001648270322821   0.025127588217176   0.122682976192459 0
force Te   0.001648270322821   0.025127588217174   0.122682976192516 0
force Te   0.001416280216713   0.010170034347906   0.152612260640108 0
force Te   0.001416280216713   0.010170034347910   0.152612260640108 0
force Te   0.001416280216713   0.010170034347910   0.152612260640108 0
force Te  -0.000023075460359  -0.009591980169987  -0.153938162278149 0
force Te  -0.000023075460359  -0.009591980169987  -0.153938162278263 0
force Te  -0.000023075460359  -0.009591980169990  -0.153938162278263 0
force Te  -0.002436968790164  -0.025785100063302  -0.122536727429441 0
force Te  -0.002436968790164  -0.025785100063302  -0.122536727429441 0
force Te  -0.002436968790164  -0.025785100063300  -0.122536727429441 0

# Energy components:
   A_diel =       -0.2757078248331714
   Eewald =     3551.0933601579704373
       EH =     4007.5864242673687841
     Eloc =    -8123.1598533840269738
      Enl =     -216.6624783138875898
      Exc =     -319.3679855826301832
 Exc_core =      199.4502097228873367
       KE =      224.2074710778570079
  MuShift =        0.0285422379219326
-------------------------------------
     Etot =     -677.1000176413730287
       TS =        0.0495366575118503
-------------------------------------
        F =     -677.1495542988848229
      muN =      -54.2538341474983312
-------------------------------------
        G =     -622.8957201513865130

IonicMinimize: Iter:   0  G: -622.895720151386513  |grad|_K:  0.000e+00  t[s]:    713.82
IonicMinimize: Converged (|grad|_K<1.000000e-04).

#--- Lowdin population analysis ---
# oxidation-state Ta -0.994 -0.994 -0.994 -0.994 -0.994 -0.994 -0.886 -0.886 -0.886
# oxidation-state Te +0.774 +0.774 +0.774 +0.774 +0.774 +0.774 +0.651 +0.651 +0.651 +0.740 +0.740 +0.740 +0.740 +0.740 +0.740 +0.651 +0.651 +0.651


Dumping 'NbTe2.fillings' ... done
Dumping 'NbTe2.wfns' ... done
Dumping 'NbTe2.fluidState' ... done
Dumping 'NbTe2.eigenvals' ... done
End date and time: Fri Jul 17 08:41:27 2020  (Duration: 0-0:11:55.40)
Done!
