
*************** JDFTx 1.5.0  ***************

Start date and time: Fri Jul 17 19:14:48 2020
Executable jdftx_gpu with command-line: -i Neutral.in -o Neutral.out
Running on hosts (process indices):  amax (0-5)
Divided in process groups (process indices):  0 (0)  1 (1)  2 (2)  3 (3)  4 (4)  5 (5)
gpuInit: Found compatible cuda device 0 'Tesla K80'
gpuInit: Found compatible cuda device 1 'Tesla K80'
gpuInit: Found compatible cuda device 2 'Tesla K80'
gpuInit: Found compatible cuda device 3 'Tesla K80'
gpuInit: Found compatible cuda device 4 'Tesla K80'
gpuInit: Found compatible cuda device 5 'Tesla K80'
gpuInit: Selected device 0
Resource initialization completed at t[s]:     11.79
Run totals: 6 processes, 24 threads, 6 GPUs


Input parsed successfully to the following command list (including defaults):

basis kpoint-dependent
cache-projectors no
coords-type Lattice
core-overlap-check none
coulomb-interaction Slab 001
coulomb-truncation-embed 0 0 0.5
davidson-band-ratio 1.1
dump End State
dump-name NbTe2.$VAR
elec-cutoff 20 100
elec-eigen-algo Davidson
elec-ex-corr gga-PBE
elec-smearing Gauss 0.0073499
electronic-minimize  \
	dirUpdateScheme      FletcherReeves \
	linminMethod         DirUpdateRecommended \
	nIterations          500 \
	history              15 \
	knormThreshold       0 \
	energyDiffThreshold  1e-08 \
	nEnergyDiff          2 \
	alphaTstart          1 \
	alphaTmin            1e-10 \
	updateTestStepSize   yes \
	alphaTreduceFactor   0.1 \
	alphaTincreaseFactor 3 \
	nAlphaAdjustMax      3 \
	wolfeEnergy          0.0001 \
	wolfeGradient        0.9 \
	fdTest               no
exchange-regularization WignerSeitzTruncated
fluid LinearPCM 298.000000 1.013250
fluid-anion F- 1 MeanFieldLJ \
	epsBulk 1 \
	pMol 0 \
	epsInf 1 \
	Pvap 0 \
	sigmaBulk 0 \
	Rvdw 2.24877 \
	Res 0 \
	tauNuc 343133
fluid-cation Na+ 1 MeanFieldLJ \
	epsBulk 1 \
	pMol 0 \
	epsInf 1 \
	Pvap 0 \
	sigmaBulk 0 \
	Rvdw 2.19208 \
	Res 0 \
	tauNuc 343133
fluid-ex-corr lda-TF lda-PZ
fluid-gummel-loop 10 1.000000e-05
fluid-minimize  \
	dirUpdateScheme      PolakRibiere \
	linminMethod         DirUpdateRecommended \
	nIterations          400 \
	history              15 \
	knormThreshold       1e-11 \
	energyDiffThreshold  0 \
	nEnergyDiff          2 \
	alphaTstart          1 \
	alphaTmin            1e-10 \
	updateTestStepSize   yes \
	alphaTreduceFactor   0.1 \
	alphaTincreaseFactor 3 \
	nAlphaAdjustMax      6 \
	wolfeEnergy          0.0001 \
	wolfeGradient        0.9 \
	fdTest               no
fluid-solvent H2O 55.338 ScalarEOS \
	epsBulk 78.4 \
	pMol 0.92466 \
	epsInf 1.77 \
	Pvap 1.06736e-10 \
	sigmaBulk 4.62e-05 \
	Rvdw 2.61727 \
	Res 1.42 \
	tauNuc 343133 \
	poleEl 15 7 1
forces-output-coords Positions
initial-state NbTe2.$VAR
ion Zn   0.111674946202205   0.222681735609682   0.329255932420121 0
ion Zn   0.444336795407482   0.222681735609682   0.329255932420121 0
ion Zn   0.777779996000000   0.222220006999997   0.329274370845919 0
ion Zn   0.111674963202203   0.555663219592516   0.329255932420121 0
ion Zn   0.444440016999998   0.555560004999997   0.328906419606773 0
ion Zn   0.777318273390315   0.555663219592516   0.329255932420121 0
ion Zn   0.111110042999996   0.888890039000003   0.329190615118344 0
ion Zn   0.444336856407483   0.888325095797798   0.329255932420121 0
ion Zn   0.777318287390316   0.888325095797798   0.329255932420121 0
ion In  -0.000145585629577   0.000145585629577   0.485695394781003 0
ion In   0.223179030016992   0.113028053033991   0.648510028521651 0
ion In   0.333621178259155   0.000145585629577   0.485695394781003 0
ion In   0.553989490388433   0.110324752694216   0.648160629966248 0
ion In   0.666117968924275  -0.001104130151448   0.484712168478150 0
ion In   0.889675289305788   0.110324752694216   0.648160629966248 0
ion In   0.001104132151448   0.333882075075721   0.484712168478150 0
ion In   0.260052379024853   0.463356200012429   0.649471889050365 0
ion In   0.335055745177351   0.336781482354698   0.486055796289256 0
ion In   0.536643806987575   0.463356200012429   0.649471889050365 0
ion In   0.666117969924279   0.333882075075721   0.484712168478150 0
ion In   0.889675250305788   0.446010514611570   0.648160629966248 0
ion In  -0.000145586629574   0.666378860740844   0.485695394781003 0
ion In   0.223179058016995   0.776820986983006   0.648510028521651 0
ion In   0.335055742177347   0.664944295822649   0.486055796289256 0
ion In   0.536643812987575   0.739947639975145   0.649471889050365 0
ion In   0.663218560645303   0.664944295822649   0.486055796289256 0
ion In   0.886971955966007   0.776820986983006   0.648510028521651 0
ion Se   0.222204234105101   0.111078461210209   0.308614087651652 0
ion Se   0.222133091393011   0.110936175786028   0.549327313400804 0
ion Se   0.112041640377505   0.222118179587071   0.434302092133100 0
ion Se   0.115447828679643   0.228822284553339   0.691992944227311 0
ion Se   0.555359650209589   0.111009832604794   0.309462952796716 0
ion Se   0.556359280111048   0.111509647555523   0.548916986642502 0
ion Se   0.443406545209570   0.222118179587071   0.434302092133100 0
ion Se   0.446704461873700   0.228822284553339   0.691992944227311 0
ion Se   0.888990209395210   0.111009832604794   0.309462952796716 0
ion Se   0.888490394444481   0.111509647555523   0.548916986642502 0
ion Se   0.777779996000000   0.222220006999997   0.434304861147628 0
ion Se   0.777779996000000   0.222220006999997   0.693399324878097 0
ion Se   0.222108725081756   0.444384373040881   0.308062461628315 0
ion Se   0.221499763381207   0.444079892190606   0.548875739379283 0
ion Se   0.112041657377503   0.556593469790428   0.434302092133100 0
ion Se   0.115447845679641   0.553295553126297   0.691992944227311 0
ion Se   0.555615633959124   0.444384373040881   0.308062461628315 0
ion Se   0.555920114809398   0.444079892190606   0.548875739379283 0
ion Se   0.444440016999998   0.555560004999997   0.432741354794532 0
ion Se   0.888990170395210   0.444640354790415   0.309462952796716 0
ion Se   0.888490355444481   0.443640724888956   0.548916986642502 0
ion Se   0.777881829412927   0.556593469790428   0.434302092133100 0
ion Se   0.771177724446659   0.553295553126297   0.691992944227311 0
ion Se   0.222204262105103   0.777795782894897   0.308614087651652 0
ion Se   0.222133119393013   0.777866925606987   0.549327313400804 0
ion Se   0.111110042999996   0.888890039000003   0.434586286830789 0
ion Se   0.111110042999996   0.888890039000003   0.693465365336902 0
ion Se   0.555615639959124   0.777891293918242   0.308062461628315 0
ion Se   0.555920120809398   0.778500255618791   0.548875739379283 0
ion Se   0.443406606209572   0.887958401622499   0.434302092133100 0
ion Se   0.446704522873702   0.884552213320361   0.691992944227311 0
ion Se   0.888921547789789   0.777795782894897   0.308614087651652 0
ion Se   0.889063833213969   0.777866925606987   0.549327313400804 0
ion Se   0.777881843412928   0.887958401622499   0.434302092133100 0
ion Se   0.771177738446660   0.884552213320361   0.691992944227311 0
ion-species GBRV/$ID_pbe.uspp
ion-width Ecut
ionic-minimize  \
	dirUpdateScheme      L-BFGS \
	linminMethod         DirUpdateRecommended \
	nIterations          0 \
	history              15 \
	knormThreshold       0.0001 \
	energyDiffThreshold  1e-06 \
	nEnergyDiff          2 \
	alphaTstart          1 \
	alphaTmin            1e-10 \
	updateTestStepSize   yes \
	alphaTreduceFactor   0.1 \
	alphaTincreaseFactor 3 \
	nAlphaAdjustMax      3 \
	wolfeEnergy          0.0001 \
	wolfeGradient        0.9 \
	fdTest               no
kpoint   0.000000000000   0.000000000000   0.000000000000  1.00000000000000
kpoint-folding 3 3 1 
latt-move-scale 1 1 1
latt-scale 1 1 1 
lattice Triclinic 22.0331 22.0331 46.3688 90 90 120
lattice-minimize  \
	dirUpdateScheme      L-BFGS \
	linminMethod         DirUpdateRecommended \
	nIterations          0 \
	history              15 \
	knormThreshold       0 \
	energyDiffThreshold  1e-06 \
	nEnergyDiff          2 \
	alphaTstart          1 \
	alphaTmin            1e-10 \
	updateTestStepSize   yes \
	alphaTreduceFactor   0.1 \
	alphaTincreaseFactor 3 \
	nAlphaAdjustMax      3 \
	wolfeEnergy          0.0001 \
	wolfeGradient        0.9 \
	fdTest               no
lcao-params -1 1e-06 0.0073499
pcm-variant CANDLE
spintype no-spin
subspace-rotation-factor 1 yes
symmetries automatic
symmetry-threshold 0.0001



---------- Setting up symmetries ----------

Found 24 point-group symmetries of the bravais lattice
Found 6 space-group symmetries with basis
Applied RMS atom displacement 6.88499e-05 bohrs to make symmetries exact.

---------- Initializing the Grid ----------
R = 
[    22.0331   -11.0165          0  ]
[          0    19.0812          0  ]
[          0          0    46.3688  ]
unit cell volume = 19494.2
G =
[   0.285171   0.164643         -0  ]
[          0   0.329287          0  ]
[          0         -0   0.135505  ]
Minimum fftbox size, Smin = [  100  100  212  ]
Chosen fftbox size, S = [  100  100  216  ]

---------- Initializing tighter grid for wavefunction operations ----------
R = 
[    22.0331   -11.0165          0  ]
[          0    19.0812          0  ]
[          0          0    46.3688  ]
unit cell volume = 19494.2
G =
[   0.285171   0.164643         -0  ]
[          0   0.329287          0  ]
[          0         -0   0.135505  ]
Minimum fftbox size, Smin = [  92  92  188  ]
Chosen fftbox size, S = [  96  96  192  ]

---------- Exchange Correlation functional ----------
Initalized PBE GGA exchange.
Initalized PBE GGA correlation.

---------- Setting up pseudopotentials ----------
Width of ionic core gaussian charges (only for fluid interactions / plotting) set to 0.397384

Reading pseudopotential file '/home/guoxy/vasp/jdftx-1.5.0/build/pseudopotentials/GBRV/zn_pbe.uspp':
  Title: Zn.  Created by USPP 7.3.6 on 14-9-2013
  Reference state energy: -230.738654.  20 valence electrons in orbitals:
    |300>  occupation: 2  eigenvalue: -4.749171
    |310>  occupation: 6  eigenvalue: -3.064985
    |320>  occupation: 10  eigenvalue: -0.372657
    |400>  occupation: 2  eigenvalue: -0.219719
    |410>  occupation: 0  eigenvalue: -0.040996
  lMax: 2  lLocal: 3  QijEcut: 5
  6 projectors sampled on a log grid with 687 points:
    l: 0  eig: -4.749172  rCut: 1.35
    l: 0  eig: -0.219719  rCut: 1.35
    l: 1  eig: -3.064985  rCut: 1.4
    l: 1  eig: -0.040997  rCut: 1.4
    l: 2  eig: -0.372656  rCut: 1.6
    l: 2  eig: 1.000000  rCut: 1.6
  Transforming local potential to a uniform radial grid of dG=0.02 with 1608 points.
  Transforming nonlocal projectors to a uniform radial grid of dG=0.02 with 432 points.
  Transforming density augmentations to a uniform radial grid of dG=0.02 with 1608 points.
  Transforming atomic orbitals to a uniform radial grid of dG=0.02 with 432 points.
  Core radius for overlap checks: 1.80 bohrs.

Reading pseudopotential file '/home/guoxy/vasp/jdftx-1.5.0/build/pseudopotentials/GBRV/in_pbe.uspp':
  Title: In.  Created by USPP 7.3.6 on 31-3-15
  Reference state energy: -66.141337.  13 valence electrons in orbitals:
    |420>  occupation: 10  eigenvalue: -1.145775
    |500>  occupation: 1.5  eigenvalue: -0.705913
    |510>  occupation: 0  eigenvalue: -0.449223
  lMax: 2  lLocal: 3  QijEcut: 5.5
  6 projectors sampled on a log grid with 719 points:
    l: 0  eig: -0.705911  rCut: 1.8
    l: 0  eig: 1.000000  rCut: 1.8
    l: 1  eig: -0.705911  rCut: 2
    l: 1  eig: 1.000000  rCut: 2
    l: 2  eig: -1.145775  rCut: 1.65
    l: 2  eig: 0.750000  rCut: 1.65
  Partial core density with radius 1.4
  Transforming core density to a uniform radial grid of dG=0.02 with 1608 points.
  Transforming local potential to a uniform radial grid of dG=0.02 with 1608 points.
  Transforming nonlocal projectors to a uniform radial grid of dG=0.02 with 432 points.
  Transforming density augmentations to a uniform radial grid of dG=0.02 with 1608 points.
  Transforming atomic orbitals to a uniform radial grid of dG=0.02 with 432 points.
  Core radius for overlap checks: 2.40 bohrs.

Reading pseudopotential file '/home/guoxy/vasp/jdftx-1.5.0/build/pseudopotentials/GBRV/se_pbe.uspp':
  Title: Se.  Created by USPP 7.3.6 on 14-9-2013
  Reference state energy: -21.672887.  6 valence electrons in orbitals:
    |400>  occupation: 2  eigenvalue: -0.635284
    |410>  occupation: 4  eigenvalue: -0.239295
  lMax: 2  lLocal: 3  QijEcut: 5
  6 projectors sampled on a log grid with 625 points:
    l: 0  eig: -0.635278  rCut: 1.5
    l: 0  eig: 0.500000  rCut: 1.5
    l: 1  eig: -0.239295  rCut: 1.5
    l: 1  eig: 0.500000  rCut: 1.5
    l: 2  eig: 0.000000  rCut: 1.8
    l: 2  eig: 1.000000  rCut: 1.8
  Partial core density with radius 1.2
  Transforming core density to a uniform radial grid of dG=0.02 with 1608 points.
  Transforming local potential to a uniform radial grid of dG=0.02 with 1608 points.
  Transforming nonlocal projectors to a uniform radial grid of dG=0.02 with 432 points.
  Transforming density augmentations to a uniform radial grid of dG=0.02 with 1608 points.
  Transforming atomic orbitals to a uniform radial grid of dG=0.02 with 432 points.
  Core radius for overlap checks: 1.80 bohrs.

Initialized 3 species with 62 total atoms.

Folded 1 k-points by 3x3x1 to 9 k-points.

---------- Setting up k-points, bands, fillings ----------
Adding inversion symmetry to k-mesh for non-inversion-symmetric unit cell.
Reduced to 3 k-points under symmetry. 
Computing the number of bands and number of electrons
Calculating initial fillings.
nElectrons: 624.000000   nBands: 419   nStates: 3

----- Setting up reduced wavefunction bases (one per k-point) -----
average nbasis = 83283.667 , ideal nbasis = 83280.880

---------- Setting up coulomb interaction ----------
Fluid mode embedding: using embedded box, but periodic Coulomb kernel.
(Fluid response is responsible for (approximate) separation between periodic images.)
Setting up double-sized grid for truncated Coulomb potentials:
R = 
[    22.0331   -11.0165          0  ]
[          0    19.0812          0  ]
[          0          0    92.7375  ]
unit cell volume = 38988.5
G =
[   0.285171   0.164643         -0  ]
[          0   0.329287          0  ]
[          0         -0  0.0677523  ]
Chosen fftbox size, S = [  100  100  432  ]
Integer grid location selected as the embedding center:
   Grid: [  0  0  108  ]
   Lattice: [  0  0  0.5  ]
   Cartesian: [  0  0  23.1844  ]
Constructing Wigner-Seitz cell: 8 faces (6 quadrilaterals, 2 hexagons)
Range-separation parameter for embedded mesh potentials due to point charges: 0.592172 bohrs.

Initializing van der Waals corrections
	NOTE: vdW corrections apply only for interactions with fluid.
	Zn:  C6:  187.33 Eh-a0^6  R0: 2.952 a0
	In:  C6:  647.33 Eh-a0^6  R0: 3.160 a0
	Se:  C6:  219.24 Eh-a0^6  R0: 3.347 a0

---------- Setting up ewald sum ----------
Optimum gaussian width for ewald sums = 6.799707 bohr.
Real space sum over 605 unit cells with max indices [  5  5  2  ]
Reciprocal space sum over 7605 terms with max indices [  6  6  22  ]

---------- Allocating electronic variables ----------
Initializing wave functions:  linear combination of atomic orbitals
Zn pseudo-atom occupations:   s ( 2 2 )  p ( 6 0 )  d ( 10 )
In pseudo-atom occupations:   s ( 2 )  p ( 1 )  d ( 10 )
Se pseudo-atom occupations:   s ( 2 )  p ( 4 )
	FillingsUpdate:  mu: -0.007892621  nElectrons: 624.000000
LCAOMinimize: Iter:   0  F: -3460.8024954028601314  |grad|_K:  5.201e-03  alpha:  1.000e+00
	FillingsUpdate:  mu: -0.013533298  nElectrons: 624.000000
LCAOMinimize: Iter:   1  F: -3460.8731496778054861  |grad|_K:  5.124e-03  alpha:  4.967e-03  linmin: -1.228e-01  cgtest:  9.976e-01  t[s]:     58.21
LCAOMinimize: Encountered beta<0, resetting CG.
LCAOMinimize: 	Predicted alpha/alphaT>3.000000, increasing alphaT to 1.490154e-02.
LCAOMinimize: 	Predicted alpha/alphaT>3.000000, increasing alphaT to 4.470463e-02.
LCAOMinimize: 	Predicted alpha/alphaT>3.000000, increasing alphaT to 1.341139e-01.
LCAOMinimize: 	Step increased F by 3.316922e+02, reducing alpha to 4.666123e-02.
	FillingsUpdate:  mu: -0.068775870  nElectrons: 624.000000
LCAOMinimize: Iter:   2  F: -3461.4892493207598818  |grad|_K:  4.462e-03  alpha:  4.666e-02  linmin: -1.243e-01  cgtest:  9.602e-01  t[s]:     94.36
LCAOMinimize: Encountered beta<0, resetting CG.
LCAOMinimize: 	Predicted alpha/alphaT>3.000000, increasing alphaT to 1.399837e-01.
	FillingsUpdate:  mu: -0.110574025  nElectrons: 624.000000
LCAOMinimize: Iter:   3  F: -3462.7123228291334271  |grad|_K:  2.877e-03  alpha:  9.640e-02  linmin: -1.436e-01  cgtest:  6.302e-01  t[s]:    114.33
	FillingsUpdate:  mu: -0.105509777  nElectrons: 624.000000
LCAOMinimize: Iter:   4  F: -3462.8926832852143889  |grad|_K:  2.746e-03  alpha:  7.388e-02  linmin:  7.667e-03  cgtest:  6.720e-02  t[s]:    129.87
	FillingsUpdate:  mu: -0.022167554  nElectrons: 624.000000
LCAOMinimize: Iter:   5  F: -3463.2262467520135942  |grad|_K:  2.127e-03  alpha:  2.050e-01  linmin:  2.292e-02  cgtest:  5.177e-01  t[s]:    145.78
	FillingsUpdate:  mu: -0.043026839  nElectrons: 624.000000
LCAOMinimize: Iter:   6  F: -3463.2687014003399781  |grad|_K:  1.676e-03  alpha:  6.795e-02  linmin:  5.021e-02  cgtest: -3.820e-01  t[s]:    161.61
	FillingsUpdate:  mu: -0.060323502  nElectrons: 624.000000
LCAOMinimize: Iter:   7  F: -3463.3186583302531290  |grad|_K:  1.439e-03  alpha:  1.248e-01  linmin:  1.559e-03  cgtest:  8.304e-01  t[s]:    177.63
	FillingsUpdate:  mu: -0.090012511  nElectrons: 624.000000
LCAOMinimize: Iter:   8  F: -3463.3413586823553487  |grad|_K:  1.878e-04  alpha:  3.626e-02  linmin: -1.271e-01  cgtest:  7.650e-01  t[s]:    193.08
LCAOMinimize: Encountered beta<0, resetting CG.
	FillingsUpdate:  mu: -0.093492585  nElectrons: 624.000000
LCAOMinimize: Iter:   9  F: -3463.3419584273992768  |grad|_K:  1.392e-04  alpha:  6.469e-02  linmin:  3.078e-03  cgtest: -1.331e-02  t[s]:    207.97
LCAOMinimize: 	Predicted alpha/alphaT>3.000000, increasing alphaT to 1.940688e-01.
	FillingsUpdate:  mu: -0.091734806  nElectrons: 624.000000
LCAOMinimize: Iter:  10  F: -3463.3429900889823330  |grad|_K:  6.102e-05  alpha:  2.040e-01  linmin: -2.649e-03  cgtest:  1.505e-01  t[s]:    230.24
	FillingsUpdate:  mu: -0.091362410  nElectrons: 624.000000
LCAOMinimize: Iter:  11  F: -3463.3431704560857725  |grad|_K:  5.372e-05  alpha:  1.825e-01  linmin: -5.618e-04  cgtest: -1.450e-02  t[s]:    246.71
	FillingsUpdate:  mu: -0.092350849  nElectrons: 624.000000
LCAOMinimize: Iter:  12  F: -3463.3432134679460432  |grad|_K:  2.494e-05  alpha:  5.544e-02  linmin: -2.783e-03  cgtest:  3.730e-02  t[s]:    261.13
LCAOMinimize: 	Predicted alpha/alphaT>3.000000, increasing alphaT to 1.663152e-01.
	FillingsUpdate:  mu: -0.092443867  nElectrons: 624.000000
LCAOMinimize: Iter:  13  F: -3463.3432626375015388  |grad|_K:  1.501e-05  alpha:  2.960e-01  linmin: -2.226e-04  cgtest: -7.032e-03  t[s]:    281.22
	FillingsUpdate:  mu: -0.091974316  nElectrons: 624.000000
LCAOMinimize: Iter:  14  F: -3463.3432723277951482  |grad|_K:  1.934e-05  alpha:  1.627e-01  linmin:  4.471e-05  cgtest: -4.806e-03  t[s]:    297.83
	FillingsUpdate:  mu: -0.092105962  nElectrons: 624.000000
LCAOMinimize: Iter:  15  F: -3463.3432800279006187  |grad|_K:  4.352e-06  alpha:  7.747e-02  linmin: -1.146e-03  cgtest:  2.775e-02  t[s]:    313.73
LCAOMinimize: 	Predicted alpha/alphaT>3.000000, increasing alphaT to 2.324211e-01.
	FillingsUpdate:  mu: -0.092159765  nElectrons: 624.000000
LCAOMinimize: Iter:  16  F: -3463.3432814490524834  |grad|_K:  3.982e-06  alpha:  2.830e-01  linmin:  8.185e-05  cgtest: -3.484e-03  t[s]:    336.17
	FillingsUpdate:  mu: -0.092095650  nElectrons: 624.000000
LCAOMinimize: Iter:  17  F: -3463.3432816968488623  |grad|_K:  2.297e-06  alpha:  5.915e-02  linmin:  1.152e-04  cgtest:  3.246e-04  t[s]:    351.04
	FillingsUpdate:  mu: -0.092113746  nElectrons: 624.000000
LCAOMinimize: Iter:  18  F: -3463.3432819275158181  |grad|_K:  7.009e-07  alpha:  1.656e-01  linmin:  1.287e-03  cgtest: -7.304e-03  t[s]:    367.83
LCAOMinimize: Converged (|Delta F|<1.000000e-06 for 2 iters).
----- createFluidSolver() ----- (Fluid-side solver setup)
   Initializing fluid molecule 'H2O'
     Initializing site 'O'
       Electron density: proportional to exp(-r/0.36935)*erfc((r-0.51523)/0.36823) with norm 6.826
       Charge density: gaussian nuclear width 0.478731 with net site charge 0.826
       Polarizability: cuspless exponential with width 0.32 and norm 3.73
       Hard sphere radius: 2.57003 bohrs
       Positions in reference frame:
         [ +0.000000 +0.000000 +0.000000 ]
     Initializing site 'H'
       Electron density: proportional to exp(-r/0.34641)*erfc((r-0)/0.390882) with norm 0.587
       Charge density: gaussian nuclear width 0.377945 with net site charge -0.413
       Polarizability: cuspless exponential with width 0.39 and norm 3.3
       Positions in reference frame:
         [ +0.000000 -1.441945 +1.122523 ]
         [ +0.000000 +1.441945 +1.122523 ]
     Net charge: 0   dipole magnitude: 0.927204
     Initializing spherical shell mfKernel with radius 2.61727 Bohr
     deltaS corrections:
       site 'O': -7.54299
       site 'H': -6.83917
   Initializing fluid molecule 'Na+'
     Initializing site 'Na'
       Electron density: proportional to exp(-r/0.19682)*erfc((r-0.71491)/0.41314) with norm 8.1383
       Charge density: gaussian nuclear width 0.365347 with net site charge -1
       Hard sphere radius: 1.86327 bohrs
       Positions in reference frame:
         [ +0.000000 +0.000000 +0.000000 ]
     Net charge: -1   dipole magnitude: 0
     Initializing gaussian mfKernel with width: 1.55004 Bohr
     deltaS corrections:
       site 'Na': -22.3555
   Initializing fluid molecule 'F-'
     Initializing site 'F'
       Electron density: proportional to exp(-r/0.38886)*erfc((r-0)/0.438782) with norm 8
       Charge density: gaussian nuclear width 0.374796 with net site charge 1
       Hard sphere radius: 2.39995 bohrs
       Positions in reference frame:
         [ +0.000000 +0.000000 +0.000000 ]
     Net charge: 1   dipole magnitude: 0
     Initializing gaussian mfKernel with width: 1.59012 Bohr
     deltaS corrections:
       site 'F': -9.04335

Correction to mu due to finite nuclear width = -0.0158799
   Cavity determined by nc: 0.00142 and sigma: 0.707107
   Nonlocal vdW cavity from gaussian model electron density with norm = 8 and sigma = 0.993594 bohr
   Charge asymmetry in cavity with sensitivity pCavity = 36.5 e-bohr/Eh
   Electrostatic cavity expanded by eta = 1.46 bohrs
   Weighted density cavitation model constrained by Nbulk: 0.0049383 bohr^-3, Pvap: 3.14029 kPa, Rvdw: 2.61727 bohr and sigmaBulk: 4.62e-05 Eh/bohr^2 at T: 298 K.
   Weighted density dispersion model using vdW pair potentials with single solvent site with sqrtC6eff: 0.77 SI.


---- Citations for features of the code used in this run ----

   Software package:
      R. Sundararaman, K. Letchworth-Weaver, K.A. Schwarz, D. Gunceler, Y. Ozhabes and T.A. Arias, 'JDFTx: software for joint density-functional theory', SoftwareX 6, 278 (2017)

   gga-PBE exchange-correlation functional:
      J.P. Perdew, K. Burke and M. Ernzerhof, Phys. Rev. Lett. 77, 3865 (1996)

   Pseudopotentials:
      KF Garrity, JW Bennett, KM Rabe and D Vanderbilt, Comput. Mater. Sci. 81, 446 (2014)

   Truncated Coulomb potentials:
      R. Sundararaman and T.A. Arias, Phys. Rev. B 87, 165122 (2013)

   Van der Waals correction pair-potentials:
      S. Grimme, J. Comput. Chem. 27, 1787 (2006)

   Charge-asymmetric nonlocally-determined local-electric (CANDLE) solvation model:
      R. Sundararaman and W.A. Goddard III, J. Chem. Phys. 142, 064107 (2015)

   Total energy minimization with Auxiliary Hamiltonian:
      C. Freysoldt, S. Boeck, and J. Neugebauer, Phys. Rev. B 79, 241103(R) (2009)

This list may not be complete. Please suggest additional citations or
report any other bugs at https://github.com/shankar1729/jdftx/issues

Initialization completed successfully at t[s]:    372.43

Fluid solver invoked on fresh (partially random / LCAO) wavefunctions
Running a vacuum solve first:

-------- Initial electronic minimization -----------
	FillingsUpdate:  mu: -0.092113746  nElectrons: 624.000000
ElecMinimize: Iter:   0  F: -3463.343281927501721  |grad|_K:  1.233e-04  alpha:  1.000e+00
	FillingsUpdate:  mu: -0.071449302  nElectrons: 624.000000
	SubspaceRotationAdjust: set factor to 1
ElecMinimize: Iter:   1  F: -3464.432530073138878  |grad|_K:  6.925e-05  alpha:  6.829e-01  linmin:  2.423e-06  t[s]:    415.10
	FillingsUpdate:  mu: -0.053725421  nElectrons: 624.000000
	SubspaceRotationAdjust: set factor to 0.961
ElecMinimize: Iter:   2  F: -3464.647504717047468  |grad|_K:  5.125e-05  alpha:  4.299e-01  linmin: -1.028e-06  t[s]:    438.58
	FillingsUpdate:  mu: -0.069459156  nElectrons: 624.000000
	SubspaceRotationAdjust: set factor to 0.675
ElecMinimize: Iter:   3  F: -3464.671330067656527  |grad|_K:  4.196e-05  alpha:  7.415e-02  linmin: -6.029e-04  t[s]:    463.09
	FillingsUpdate:  mu: -0.068152093  nElectrons: 624.000000
	SubspaceRotationAdjust: set factor to 0.752
ElecMinimize: Iter:   4  F: -3464.712559230784791  |grad|_K:  3.487e-05  alpha:  1.947e-01  linmin: -1.443e-05  t[s]:    486.85
	FillingsUpdate:  mu: -0.052326513  nElectrons: 624.000000
	SubspaceRotationAdjust: set factor to 0.486
ElecMinimize: Iter:   5  F: -3464.746537250077836  |grad|_K:  3.342e-05  alpha:  2.621e-01  linmin: -1.521e-04  t[s]:    511.89
	FillingsUpdate:  mu: -0.067261268  nElectrons: 624.000000
	SubspaceRotationAdjust: set factor to 0.414
ElecMinimize: Iter:   6  F: -3464.756042058582352  |grad|_K:  1.449e-05  alpha:  7.428e-02  linmin: -2.684e-04  t[s]:    536.54
ElecMinimize: 	Predicted alpha/alphaT>3.000000, increasing alphaT to 2.228468e-01.
	FillingsUpdate:  mu: -0.071788872  nElectrons: 624.000000
	SubspaceRotationAdjust: set factor to 0.477
ElecMinimize: Iter:   7  F: -3464.763613215335681  |grad|_K:  1.722e-05  alpha:  3.289e-01  linmin:  3.111e-05  t[s]:    568.08
	FillingsUpdate:  mu: -0.070314152  nElectrons: 624.000000
	SubspaceRotationAdjust: set factor to 0.403
ElecMinimize: Iter:   8  F: -3464.769062136018874  |grad|_K:  1.245e-05  alpha:  1.798e-01  linmin:  1.322e-05  t[s]:    590.65
	FillingsUpdate:  mu: -0.069901288  nElectrons: 624.000000
	SubspaceRotationAdjust: set factor to 0.519
ElecMinimize: Iter:   9  F: -3464.772156046427881  |grad|_K:  9.093e-06  alpha:  1.911e-01  linmin:  4.816e-06  t[s]:    614.87
	FillingsUpdate:  mu: -0.070204022  nElectrons: 624.000000
	SubspaceRotationAdjust: set factor to 0.483
ElecMinimize: Iter:  10  F: -3464.774180046393212  |grad|_K:  8.389e-06  alpha:  2.341e-01  linmin:  3.229e-05  t[s]:    637.73
	FillingsUpdate:  mu: -0.067154178  nElectrons: 624.000000
	SubspaceRotationAdjust: set factor to 0.424
ElecMinimize: Iter:  11  F: -3464.775304745495760  |grad|_K:  5.091e-06  alpha:  1.537e-01  linmin: -6.192e-08  t[s]:    662.44
	FillingsUpdate:  mu: -0.066828076  nElectrons: 624.000000
	SubspaceRotationAdjust: set factor to 0.512
ElecMinimize: Iter:  12  F: -3464.775993531117820  |grad|_K:  4.623e-06  alpha:  2.532e-01  linmin:  9.041e-07  t[s]:    684.19
	FillingsUpdate:  mu: -0.069197346  nElectrons: 624.000000
	SubspaceRotationAdjust: set factor to 0.46
ElecMinimize: Iter:  13  F: -3464.776542424718627  |grad|_K:  4.380e-06  alpha:  2.447e-01  linmin:  7.115e-06  t[s]:    708.59
	FillingsUpdate:  mu: -0.069231447  nElectrons: 624.000000
	SubspaceRotationAdjust: set factor to 0.445
ElecMinimize: Iter:  14  F: -3464.776872503280629  |grad|_K:  2.363e-06  alpha:  1.647e-01  linmin: -1.123e-07  t[s]:    731.44
	FillingsUpdate:  mu: -0.069027365  nElectrons: 624.000000
	SubspaceRotationAdjust: set factor to 0.481
ElecMinimize: Iter:  15  F: -3464.777039051074553  |grad|_K:  2.400e-06  alpha:  2.842e-01  linmin:  8.103e-08  t[s]:    756.24
	FillingsUpdate:  mu: -0.069403148  nElectrons: 624.000000
	SubspaceRotationAdjust: set factor to 0.427
ElecMinimize: Iter:  16  F: -3464.777181657253550  |grad|_K:  1.945e-06  alpha:  2.357e-01  linmin:  1.486e-06  t[s]:    777.94
	FillingsUpdate:  mu: -0.068862389  nElectrons: 624.000000
	SubspaceRotationAdjust: set factor to 0.382
ElecMinimize: Iter:  17  F: -3464.777254918280960  |grad|_K:  1.413e-06  alpha:  1.847e-01  linmin: -5.784e-08  t[s]:    801.51
	FillingsUpdate:  mu: -0.068749458  nElectrons: 624.000000
	SubspaceRotationAdjust: set factor to 0.426
ElecMinimize: Iter:  18  F: -3464.777312506996168  |grad|_K:  1.146e-06  alpha:  2.747e-01  linmin:  4.518e-07  t[s]:    823.07
	FillingsUpdate:  mu: -0.069042162  nElectrons: 624.000000
	SubspaceRotationAdjust: set factor to 0.394
ElecMinimize: Iter:  19  F: -3464.777345441078069  |grad|_K:  1.033e-06  alpha:  2.390e-01  linmin:  3.686e-07  t[s]:    848.27
	FillingsUpdate:  mu: -0.068999819  nElectrons: 624.000000
	SubspaceRotationAdjust: set factor to 0.382
ElecMinimize: Iter:  20  F: -3464.777374457145925  |grad|_K:  8.676e-07  alpha:  2.593e-01  linmin:  1.145e-07  t[s]:    872.90
	FillingsUpdate:  mu: -0.069112283  nElectrons: 624.000000
	SubspaceRotationAdjust: set factor to 0.41
ElecMinimize: Iter:  21  F: -3464.777395082661769  |grad|_K:  7.381e-07  alpha:  2.611e-01  linmin:  1.777e-07  t[s]:    897.81
	FillingsUpdate:  mu: -0.069244072  nElectrons: 624.000000
	SubspaceRotationAdjust: set factor to 0.398
ElecMinimize: Iter:  22  F: -3464.777410013095505  |grad|_K:  6.392e-07  alpha:  2.612e-01  linmin:  1.856e-07  t[s]:    921.27
	FillingsUpdate:  mu: -0.069046434  nElectrons: 624.000000
	SubspaceRotationAdjust: set factor to 0.382
ElecMinimize: Iter:  23  F: -3464.777421488691743  |grad|_K:  6.282e-07  alpha:  2.677e-01  linmin:  8.184e-08  t[s]:    944.70
	FillingsUpdate:  mu: -0.068997374  nElectrons: 624.000000
	SubspaceRotationAdjust: set factor to 0.409
ElecMinimize: Iter:  24  F: -3464.777433611414381  |grad|_K:  5.059e-07  alpha:  2.928e-01  linmin:  1.633e-07  t[s]:    968.62
	FillingsUpdate:  mu: -0.069086702  nElectrons: 624.000000
	SubspaceRotationAdjust: set factor to 0.408
ElecMinimize: Iter:  25  F: -3464.777440268732335  |grad|_K:  4.563e-07  alpha:  2.479e-01  linmin:  6.061e-08  t[s]:    990.96
	FillingsUpdate:  mu: -0.069028875  nElectrons: 624.000000
	SubspaceRotationAdjust: set factor to 0.392
ElecMinimize: Iter:  26  F: -3464.777446223631614  |grad|_K:  4.168e-07  alpha:  2.725e-01  linmin:  1.120e-07  t[s]:   1014.05
	FillingsUpdate:  mu: -0.069085774  nElectrons: 624.000000
	SubspaceRotationAdjust: set factor to 0.41
ElecMinimize: Iter:  27  F: -3464.777451115052372  |grad|_K:  3.363e-07  alpha:  2.683e-01  linmin:  9.534e-08  t[s]:   1038.55
	FillingsUpdate:  mu: -0.069138665  nElectrons: 624.000000
	SubspaceRotationAdjust: set factor to 0.421
ElecMinimize: Iter:  28  F: -3464.777454080327971  |grad|_K:  2.887e-07  alpha:  2.498e-01  linmin:  7.030e-08  t[s]:   1062.97
	FillingsUpdate:  mu: -0.069063728  nElectrons: 624.000000
	SubspaceRotationAdjust: set factor to 0.4
ElecMinimize: Iter:  29  F: -3464.777456339714718  |grad|_K:  2.516e-07  alpha:  2.584e-01  linmin:  5.863e-08  t[s]:   1086.75
	FillingsUpdate:  mu: -0.069065197  nElectrons: 624.000000
	SubspaceRotationAdjust: set factor to 0.415
ElecMinimize: Iter:  30  F: -3464.777457992903692  |grad|_K:  1.999e-07  alpha:  2.489e-01  linmin:  1.810e-08  t[s]:   1111.39
	FillingsUpdate:  mu: -0.069072253  nElectrons: 624.000000
	SubspaceRotationAdjust: set factor to 0.449
ElecMinimize: Iter:  31  F: -3464.777459038838970  |grad|_K:  1.557e-07  alpha:  2.495e-01  linmin:  5.112e-08  t[s]:   1134.96
	FillingsUpdate:  mu: -0.069049664  nElectrons: 624.000000
	SubspaceRotationAdjust: set factor to 0.427
ElecMinimize: Iter:  32  F: -3464.777459687195460  |grad|_K:  1.441e-07  alpha:  2.547e-01  linmin:  6.688e-08  t[s]:   1159.58
	FillingsUpdate:  mu: -0.069083193  nElectrons: 624.000000
	SubspaceRotationAdjust: set factor to 0.421
ElecMinimize: Iter:  33  F: -3464.777460204700674  |grad|_K:  1.074e-07  alpha:  2.376e-01  linmin:  8.574e-09  t[s]:   1183.91
	FillingsUpdate:  mu: -0.069078738  nElectrons: 624.000000
	SubspaceRotationAdjust: set factor to 0.46
ElecMinimize: Iter:  34  F: -3464.777460504327337  |grad|_K:  8.662e-08  alpha:  2.475e-01  linmin:  2.180e-08  t[s]:   1209.02
	FillingsUpdate:  mu: -0.069063805  nElectrons: 624.000000
	SubspaceRotationAdjust: set factor to 0.468
ElecMinimize: Iter:  35  F: -3464.777460706246075  |grad|_K:  7.051e-08  alpha:  2.565e-01  linmin:  2.039e-08  t[s]:   1231.91
	FillingsUpdate:  mu: -0.069074403  nElectrons: 624.000000
	SubspaceRotationAdjust: set factor to 0.438
ElecMinimize: Iter:  36  F: -3464.777460830361179  |grad|_K:  6.112e-08  alpha:  2.377e-01  linmin:  3.155e-08  t[s]:   1255.66
	FillingsUpdate:  mu: -0.069062704  nElectrons: 624.000000
	SubspaceRotationAdjust: set factor to 0.429
ElecMinimize: Iter:  37  F: -3464.777460917418466  |grad|_K:  4.412e-08  alpha:  2.220e-01  linmin:  9.638e-09  t[s]:   1298.53
	FillingsUpdate:  mu: -0.069065609  nElectrons: 624.000000
	SubspaceRotationAdjust: set factor to 0.453
ElecMinimize: Iter:  38  F: -3464.777460973013604  |grad|_K:  3.902e-08  alpha:  2.719e-01  linmin: -1.515e-07  t[s]:   1321.15
	FillingsUpdate:  mu: -0.069073002  nElectrons: 624.000000
	SubspaceRotationAdjust: set factor to 0.468
ElecMinimize: Iter:  39  F: -3464.777461013008633  |grad|_K:  3.032e-08  alpha:  2.496e-01  linmin: -1.909e-08  t[s]:   1345.77
	FillingsUpdate:  mu: -0.069067440  nElectrons: 624.000000
	SubspaceRotationAdjust: set factor to 0.441
ElecMinimize: Iter:  40  F: -3464.777461036414934  |grad|_K:  2.745e-08  alpha:  2.421e-01  linmin:  1.398e-08  t[s]:   1369.04
	FillingsUpdate:  mu: -0.069070519  nElectrons: 624.000000
	SubspaceRotationAdjust: set factor to 0.423
ElecMinimize: Iter:  41  F: -3464.777461055511594  |grad|_K:  2.189e-08  alpha:  2.417e-01  linmin: -3.528e-08  t[s]:   1391.60
	FillingsUpdate:  mu: -0.069068076  nElectrons: 624.000000
	SubspaceRotationAdjust: set factor to 0.458
ElecMinimize: Iter:  42  F: -3464.777461069021683  |grad|_K:  1.813e-08  alpha:  2.674e-01  linmin: -1.177e-07  t[s]:   1413.33
	FillingsUpdate:  mu: -0.069065964  nElectrons: 624.000000
	SubspaceRotationAdjust: set factor to 0.477
ElecMinimize: Iter:  43  F: -3464.777461077982480  |grad|_K:  1.598e-08  alpha:  2.593e-01  linmin:  2.913e-08  t[s]:   1436.97
	FillingsUpdate:  mu: -0.069069744  nElectrons: 624.000000
	SubspaceRotationAdjust: set factor to 0.454
ElecMinimize: Iter:  44  F: -3464.777461085154300  |grad|_K:  1.421e-08  alpha:  2.667e-01  linmin:  2.408e-08  t[s]:   1459.31
ElecMinimize: Converged (|Delta F|<1.000000e-08 for 2 iters).
Setting wave functions to eigenvectors of Hamiltonian
Vacuum energy after initial minimize, F = -3464.777461085154300

	Linear fluid (dielectric constant: 78.4, screening length: 5.74355 Bohr) occupying 0.690779 of unit cell:	Completed after 25 iterations at t[s]:   1468.83

-------- Electronic minimization -----------
	Linear fluid (dielectric constant: 78.4, screening length: 5.74355 Bohr) occupying 0.690779 of unit cell:	Completed after 0 iterations at t[s]:   1476.18
	FillingsUpdate:  mu: -0.184958403  nElectrons: 624.000000
ElecMinimize: Iter:   0  F: -3464.775964541188841  |grad|_K:  1.750e-05  alpha:  1.000e+00
	Linear fluid (dielectric constant: 78.4, screening length: 5.74355 Bohr) occupying 0.691956 of unit cell:	Completed after 21 iterations at t[s]:   1498.12
	Linear fluid (dielectric constant: 78.4, screening length: 5.74355 Bohr) occupying 0.691014 of unit cell:	Completed after 19 iterations at t[s]:   1511.60
	FillingsUpdate:  mu: -0.184219039  nElectrons: 624.000000
	SubspaceRotationAdjust: set factor to 0.276
ElecMinimize: Iter:   1  F: -3464.784021946254597  |grad|_K:  1.087e-05  alpha:  3.416e-01  linmin:  4.593e-04  t[s]:   1521.80
	Linear fluid (dielectric constant: 78.4, screening length: 5.74355 Bohr) occupying 0.691175 of unit cell:	Completed after 15 iterations at t[s]:   1531.46
	Linear fluid (dielectric constant: 78.4, screening length: 5.74355 Bohr) occupying 0.691290 of unit cell:	Completed after 15 iterations at t[s]:   1542.31
	FillingsUpdate:  mu: -0.183024566  nElectrons: 624.000000
	SubspaceRotationAdjust: set factor to 0.254
ElecMinimize: Iter:   2  F: -3464.789830596263528  |grad|_K:  7.020e-06  alpha:  5.868e-01  linmin:  9.020e-07  t[s]:   1552.42
	Linear fluid (dielectric constant: 78.4, screening length: 5.74355 Bohr) occupying 0.691481 of unit cell:	Completed after 14 iterations at t[s]:   1562.56
	Linear fluid (dielectric constant: 78.4, screening length: 5.74355 Bohr) occupying 0.691369 of unit cell:	Completed after 10 iterations at t[s]:   1573.35
	FillingsUpdate:  mu: -0.182456756  nElectrons: 624.000000
	SubspaceRotationAdjust: set factor to 0.292
ElecMinimize: Iter:   3  F: -3464.791081009784193  |grad|_K:  5.040e-06  alpha:  2.427e-01  linmin:  3.583e-07  t[s]:   1583.63
	Linear fluid (dielectric constant: 78.4, screening length: 5.74355 Bohr) occupying 0.691436 of unit cell:	Completed after 8 iterations at t[s]:   1593.19
	Linear fluid (dielectric constant: 78.4, screening length: 5.74355 Bohr) occupying 0.691516 of unit cell:	Completed after 9 iterations at t[s]:   1604.53
	FillingsUpdate:  mu: -0.183517364  nElectrons: 624.000000
	SubspaceRotationAdjust: set factor to 0.335
ElecMinimize: Iter:   4  F: -3464.792519262873157  |grad|_K:  2.841e-06  alpha:  5.393e-01  linmin: -1.078e-06  t[s]:   1615.63
	Linear fluid (dielectric constant: 78.4, screening length: 5.74355 Bohr) occupying 0.691586 of unit cell:	Completed after 11 iterations at t[s]:   1624.92
	Linear fluid (dielectric constant: 78.4, screening length: 5.74355 Bohr) occupying 0.691592 of unit cell:	Completed after 2 iterations at t[s]:   1634.27
	FillingsUpdate:  mu: -0.182955255  nElectrons: 624.000000
	SubspaceRotationAdjust: set factor to 0.365
ElecMinimize: Iter:   5  F: -3464.793022541543905  |grad|_K:  2.755e-06  alpha:  5.932e-01  linmin:  1.628e-07  t[s]:   1645.96
	Linear fluid (dielectric constant: 78.4, screening length: 5.74355 Bohr) occupying 0.691656 of unit cell:	Completed after 12 iterations at t[s]:   1656.07
	Linear fluid (dielectric constant: 78.4, screening length: 5.74355 Bohr) occupying 0.691620 of unit cell:	Completed after 10 iterations at t[s]:   1667.13
	FillingsUpdate:  mu: -0.182692391  nElectrons: 624.000000
	SubspaceRotationAdjust: set factor to 0.406
ElecMinimize: Iter:   6  F: -3464.793219457104442  |grad|_K:  1.879e-06  alpha:  2.477e-01  linmin:  2.419e-07  t[s]:   1677.61
	Linear fluid (dielectric constant: 78.4, screening length: 5.74355 Bohr) occupying 0.691628 of unit cell:	Completed after 3 iterations at t[s]:   1686.15
	Linear fluid (dielectric constant: 78.4, screening length: 5.74355 Bohr) occupying 0.691632 of unit cell:	Completed after 3 iterations at t[s]:   1695.70
	FillingsUpdate:  mu: -0.182738169  nElectrons: 624.000000
	SubspaceRotationAdjust: set factor to 0.457
ElecMinimize: Iter:   7  F: -3464.793370256498747  |grad|_K:  1.306e-06  alpha:  4.068e-01  linmin: -8.156e-07  t[s]:   1706.25
	Linear fluid (dielectric constant: 78.4, screening length: 5.74355 Bohr) occupying 0.691625 of unit cell:	Completed after 6 iterations at t[s]:   1715.53
	Linear fluid (dielectric constant: 78.4, screening length: 5.74355 Bohr) occupying 0.691628 of unit cell:	Completed after 2 iterations at t[s]:   1725.15
	FillingsUpdate:  mu: -0.182699844  nElectrons: 624.000000
	SubspaceRotationAdjust: set factor to 0.52
ElecMinimize: Iter:   8  F: -3464.793417293428320  |grad|_K:  9.703e-07  alpha:  2.619e-01  linmin:  3.687e-07  t[s]:   1736.69
	Linear fluid (dielectric constant: 78.4, screening length: 5.74355 Bohr) occupying 0.691617 of unit cell:	Completed after 3 iterations at t[s]:   1745.14
	Linear fluid (dielectric constant: 78.4, screening length: 5.74355 Bohr) occupying 0.691610 of unit cell:	Completed after 3 iterations at t[s]:   1755.50
	FillingsUpdate:  mu: -0.182791834  nElectrons: 624.000000
	SubspaceRotationAdjust: set factor to 0.574
ElecMinimize: Iter:   9  F: -3464.793458277270474  |grad|_K:  6.468e-07  alpha:  4.178e-01  linmin:  4.726e-06  t[s]:   1766.27
	Linear fluid (dielectric constant: 78.4, screening length: 5.74355 Bohr) occupying 0.691597 of unit cell:	Completed after 2 iterations at t[s]:   1774.27
	Linear fluid (dielectric constant: 78.4, screening length: 5.74355 Bohr) occupying 0.691601 of unit cell:	Completed after 3 iterations at t[s]:   1783.75
	FillingsUpdate:  mu: -0.182804150  nElectrons: 624.000000
	SubspaceRotationAdjust: set factor to 0.649
ElecMinimize: Iter:  10  F: -3464.793471153774590  |grad|_K:  4.160e-07  alpha:  2.982e-01  linmin: -2.601e-06  t[s]:   1793.97
	Linear fluid (dielectric constant: 78.4, screening length: 5.74355 Bohr) occupying 0.691596 of unit cell:	Completed after 2 iterations at t[s]:   1802.87
	Linear fluid (dielectric constant: 78.4, screening length: 5.74355 Bohr) occupying 0.691595 of unit cell:	Completed after 0 iterations at t[s]:   1812.40
	FillingsUpdate:  mu: -0.182810625  nElectrons: 624.000000
	SubspaceRotationAdjust: set factor to 0.691
ElecMinimize: Iter:  11  F: -3464.793477610095124  |grad|_K:  3.286e-07  alpha:  3.532e-01  linmin: -1.780e-05  t[s]:   1821.99
	Linear fluid (dielectric constant: 78.4, screening length: 5.74355 Bohr) occupying 0.691591 of unit cell:	Completed after 2 iterations at t[s]:   1830.24
	Linear fluid (dielectric constant: 78.4, screening length: 5.74355 Bohr) occupying 0.691592 of unit cell:	Completed after 2 iterations at t[s]:   1839.61
	FillingsUpdate:  mu: -0.182728171  nElectrons: 624.000000
	SubspaceRotationAdjust: set factor to 0.688
ElecMinimize: Iter:  12  F: -3464.793480179050675  |grad|_K:  1.988e-07  alpha:  2.384e-01  linmin: -2.335e-05  t[s]:   1849.06
	Linear fluid (dielectric constant: 78.4, screening length: 5.74355 Bohr) occupying 0.691590 of unit cell:	Completed after 2 iterations at t[s]:   1857.49
	Linear fluid (dielectric constant: 78.4, screening length: 5.74355 Bohr) occupying 0.691589 of unit cell:	Completed after 1 iterations at t[s]:   1865.82
	FillingsUpdate:  mu: -0.182717362  nElectrons: 624.000000
	SubspaceRotationAdjust: set factor to 0.799
ElecMinimize: Iter:  13  F: -3464.793481686760970  |grad|_K:  1.591e-07  alpha:  3.592e-01  linmin: -1.994e-05  t[s]:   1875.55
	Linear fluid (dielectric constant: 78.4, screening length: 5.74355 Bohr) occupying 0.691584 of unit cell:	Completed after 3 iterations at t[s]:   1884.11
	Linear fluid (dielectric constant: 78.4, screening length: 5.74355 Bohr) occupying 0.691586 of unit cell:	Completed after 0 iterations at t[s]:   1893.38
	FillingsUpdate:  mu: -0.182766134  nElectrons: 624.000000
	SubspaceRotationAdjust: set factor to 0.717
ElecMinimize: Iter:  14  F: -3464.793482363614203  |grad|_K:  1.396e-07  alpha:  2.450e-01  linmin:  3.522e-05  t[s]:   1903.57
	Linear fluid (dielectric constant: 78.4, screening length: 5.74355 Bohr) occupying 0.691584 of unit cell:	Completed after 1 iterations at t[s]:   1911.31
	Linear fluid (dielectric constant: 78.4, screening length: 5.74355 Bohr) occupying 0.691584 of unit cell:	Completed after 0 iterations at t[s]:   1920.12
	FillingsUpdate:  mu: -0.182772000  nElectrons: 624.000000
	SubspaceRotationAdjust: set factor to 1.04
ElecMinimize: Iter:  15  F: -3464.793482770970058  |grad|_K:  1.013e-07  alpha:  2.283e-01  linmin: -5.409e-05  t[s]:   1930.48
	Linear fluid (dielectric constant: 78.4, screening length: 5.74355 Bohr) occupying 0.691583 of unit cell:	Completed after 3 iterations at t[s]:   1939.79
	Linear fluid (dielectric constant: 78.4, screening length: 5.74355 Bohr) occupying 0.691583 of unit cell:	Completed after 0 iterations at t[s]:   1949.29
	FillingsUpdate:  mu: -0.182777422  nElectrons: 624.000000
	SubspaceRotationAdjust: set factor to 1.06
ElecMinimize: Iter:  16  F: -3464.793483064399879  |grad|_K:  6.759e-08  alpha:  2.322e-01  linmin: -7.121e-05  t[s]:   1959.53
	Linear fluid (dielectric constant: 78.4, screening length: 5.74355 Bohr) occupying 0.691584 of unit cell:	Completed after 0 iterations at t[s]:   1967.61
	Linear fluid (dielectric constant: 78.4, screening length: 5.74355 Bohr) occupying 0.691584 of unit cell:	Completed after 0 iterations at t[s]:   1976.50
	FillingsUpdate:  mu: -0.182777516  nElectrons: 624.000000
	SubspaceRotationAdjust: set factor to 1.25
ElecMinimize: Iter:  17  F: -3464.793483252341048  |grad|_K:  6.034e-08  alpha:  3.215e-01  linmin:  4.459e-08  t[s]:   1987.12
	Linear fluid (dielectric constant: 78.4, screening length: 5.74355 Bohr) occupying 0.691585 of unit cell:	Completed after 2 iterations at t[s]:   1995.13
	Linear fluid (dielectric constant: 78.4, screening length: 5.74355 Bohr) occupying 0.691585 of unit cell:	Completed after 0 iterations at t[s]:   2004.14
	FillingsUpdate:  mu: -0.182751202  nElectrons: 624.000000
	SubspaceRotationAdjust: set factor to 1.15
ElecMinimize: Iter:  18  F: -3464.793483258120887  |grad|_K:  8.275e-08  alpha:  1.557e-01  linmin: -1.175e-05  t[s]:   2015.01
	Linear fluid (dielectric constant: 78.4, screening length: 5.74355 Bohr) occupying 0.691584 of unit cell:	Completed after 0 iterations at t[s]:   2023.02
	Linear fluid (dielectric constant: 78.4, screening length: 5.74355 Bohr) occupying 0.691584 of unit cell:	Completed after 0 iterations at t[s]:   2031.90
	FillingsUpdate:  mu: -0.182749408  nElectrons: 624.000000
	SubspaceRotationAdjust: set factor to 1.3
ElecMinimize: Iter:  19  F: -3464.793483364060194  |grad|_K:  7.752e-08  alpha:  1.374e-01  linmin: -8.565e-06  t[s]:   2042.06
	Linear fluid (dielectric constant: 78.4, screening length: 5.74355 Bohr) occupying 0.691583 of unit cell:	Completed after 3 iterations at t[s]:   2050.04
	Linear fluid (dielectric constant: 78.4, screening length: 5.74355 Bohr) occupying 0.691584 of unit cell:	Completed after 0 iterations at t[s]:   2058.39
	FillingsUpdate:  mu: -0.182744322  nElectrons: 624.000000
	SubspaceRotationAdjust: set factor to 1.12
ElecMinimize: Iter:  20  F: -3464.793483392827511  |grad|_K:  7.461e-08  alpha:  5.345e-02  linmin:  3.884e-05  t[s]:   2068.40
	Linear fluid (dielectric constant: 78.4, screening length: 5.74355 Bohr) occupying 0.691584 of unit cell:	Completed after 0 iterations at t[s]:   2076.10
	Linear fluid (dielectric constant: 78.4, screening length: 5.74355 Bohr) occupying 0.691583 of unit cell:	Completed after 0 iterations at t[s]:   2084.82
	FillingsUpdate:  mu: -0.182744124  nElectrons: 624.000000
	SubspaceRotationAdjust: set factor to 1.51
ElecMinimize: Iter:  21  F: -3464.793483412820933  |grad|_K:  6.487e-08  alpha:  7.848e-02  linmin: -2.411e-07  t[s]:   2095.40
	Linear fluid (dielectric constant: 78.4, screening length: 5.74355 Bohr) occupying 0.691583 of unit cell:	Completed after 0 iterations at t[s]:   2103.01
	Linear fluid (dielectric constant: 78.4, screening length: 5.74355 Bohr) occupying 0.691583 of unit cell:	Completed after 0 iterations at t[s]:   2111.83
	FillingsUpdate:  mu: -0.182744235  nElectrons: 624.000000
	SubspaceRotationAdjust: set factor to 1.62
ElecMinimize: Iter:  22  F: -3464.793483473000379  |grad|_K:  6.560e-08  alpha:  1.354e-01  linmin: -2.311e-07  t[s]:   2121.86
	Linear fluid (dielectric constant: 78.4, screening length: 5.74355 Bohr) occupying 0.691582 of unit cell:	Completed after 2 iterations at t[s]:   2130.34
	Linear fluid (dielectric constant: 78.4, screening length: 5.74355 Bohr) occupying 0.691583 of unit cell:	Completed after 0 iterations at t[s]:   2140.91
ElecMinimize: 	Step increased F by 3.570221e-08, reducing alpha to 2.281497e-03.
	Linear fluid (dielectric constant: 78.4, screening length: 5.74355 Bohr) occupying 0.691583 of unit cell:	Completed after 0 iterations at t[s]:   2155.87
ElecMinimize: 	Step increased F by 6.153641e-09, reducing alpha to 2.281497e-04.
	Linear fluid (dielectric constant: 78.4, screening length: 5.74355 Bohr) occupying 0.691583 of unit cell:	Completed after 0 iterations at t[s]:   2173.46
ElecMinimize: 	Step increased F by 3.373771e-09, reducing alpha to 2.281497e-05.
ElecMinimize: 	Step failed to reduce F after 3 attempts. Quitting step.
ElecMinimize: 	Undoing step.
	Linear fluid (dielectric constant: 78.4, screening length: 5.74355 Bohr) occupying 0.691583 of unit cell:	Completed after 0 iterations at t[s]:   2191.26
ElecMinimize: 	Step failed: resetting search direction.
	FillingsUpdate:  mu: -0.182782238  nElectrons: 624.000000
	SubspaceRotationAdjust: set factor to 1.54
ElecMinimize: Iter:  23  F: -3464.793483469644343  |grad|_K:  1.012e-07  alpha:  2.281e-05
	Linear fluid (dielectric constant: 78.4, screening length: 5.74355 Bohr) occupying 0.691583 of unit cell:	Completed after 2 iterations at t[s]:   2210.01
	Linear fluid (dielectric constant: 78.4, screening length: 5.74355 Bohr) occupying 0.691583 of unit cell:	Completed after 0 iterations at t[s]:   2219.47
ElecMinimize: 	Step increased F by 1.176386e-08, reducing alpha to 5.476777e-03.
	Linear fluid (dielectric constant: 78.4, screening length: 5.74355 Bohr) occupying 0.691583 of unit cell:	Completed after 1 iterations at t[s]:   2246.32
ElecMinimize: 	Step increased F by 5.181300e-08, reducing alpha to 5.476777e-04.
	Linear fluid (dielectric constant: 78.4, screening length: 5.74355 Bohr) occupying 0.691583 of unit cell:	Completed after 0 iterations at t[s]:   2262.80
ElecMinimize: 	Step increased F by 5.382208e-08, reducing alpha to 5.476777e-05.
ElecMinimize: 	Step failed to reduce F after 3 attempts. Quitting step.
ElecMinimize: 	Undoing step.
	Linear fluid (dielectric constant: 78.4, screening length: 5.74355 Bohr) occupying 0.691583 of unit cell:	Completed after 0 iterations at t[s]:   2280.00
ElecMinimize: 	Step failed along negative gradient direction.
ElecMinimize: Probably at roundoff error limit. (Stopping)
Setting wave functions to eigenvectors of Hamiltonian
Single-point solvation energy estimate, DeltaF = -0.016022330641135

# Ionic positions in lattice coordinates:
ion Zn   0.111676130718332   0.222680566545168   0.329255932420121 0
ion Zn   0.444337998423611   0.222680566545168   0.329255932420121 0
ion Zn   0.777777863349463   0.222222164102150   0.329274370845919 0
ion Zn   0.111676130718332   0.555662029028002   0.329255932420121 0
ion Zn   0.444444530016129   0.555555497435484   0.328906419606773 0
ion Zn   0.777319460906445   0.555662029028002   0.329255932420121 0
ion Zn   0.111111196682796   0.888888830768817   0.329190615118344 0
ion Zn   0.444337998423611   0.888323896733281   0.329255932420121 0
ion Zn   0.777319460906445   0.888323896733281   0.329255932420121 0
ion In  -0.000144384780115   0.000144412231728   0.485695394781003 0
ion In   0.223180224699792   0.113026886802808   0.648510028521651 0
ion In   0.333622359608618   0.000144412231728   0.485695394781003 0
ion In   0.553987343071226   0.110326903963032   0.648160629966248 0
ion In   0.666115802107073  -0.001101958382629   0.484712168478150 0
ion In   0.889673123488581   0.110326903963032   0.648160629966248 0
ion In   0.001101985834242   0.333884225344540   0.484712168478150 0
ion In   0.260050240707650   0.463358352781244   0.649471889050365 0
ion In   0.335056924693478   0.336780286790181   0.486055796289256 0
ion In   0.536641674670369   0.463358352781244   0.649471889050365 0
ion In   0.666115802107073   0.333884225344540   0.484712168478150 0
ion In   0.889673123488581   0.446012684380387   0.648160629966248 0
ion In  -0.000144384780115   0.666377667842995   0.485695394781003 0
ion In   0.223180224699792   0.776819802751821   0.648510028521651 0
ion In   0.335056924693478   0.664943102758135   0.486055796289256 0
ion In   0.536641674670369   0.739949786743963   0.649471889050365 0
ion In   0.663219740661432   0.664943102758135   0.486055796289256 0
ion In   0.886973140648805   0.776819802751821   0.648510028521651 0
ion Se   0.222205428787900   0.111077294979026   0.308614087651652 0
ion Se   0.222134286075810   0.110935009554846   0.549327313400804 0
ion Se   0.112042824893631   0.222117010522556   0.434302092133100 0
ion Se   0.115449013195769   0.228821115488824   0.691992944227311 0
ion Se   0.555357502892382   0.111011983873610   0.309462952796716 0
ion Se   0.556357132793841   0.111511798824339   0.548916986642502 0
ion Se   0.443407748225700   0.222117010522556   0.434302092133100 0
ion Se   0.446705664889830   0.228821115488824   0.691992944227311 0
ion Se   0.888988043578003   0.111011983873610   0.309462952796716 0
ion Se   0.888488228627274   0.111511798824339   0.548916986642502 0
ion Se   0.777777863349463   0.222222164102150   0.434304861147628 0
ion Se   0.777777863349463   0.222222164102150   0.693399324878097 0
ion Se   0.222106586764553   0.444386525809695   0.308062461628315 0
ion Se   0.221497625064004   0.444082044959421   0.548875739379283 0
ion Se   0.112042824893631   0.556592279225913   0.434302092133100 0
ion Se   0.115449013195769   0.553294362561783   0.691992944227311 0
ion Se   0.555613501641918   0.444386525809695   0.308062461628315 0
ion Se   0.555917982492192   0.444082044959421   0.548875739379283 0
ion Se   0.444444530016129   0.555555497435484   0.432741354794532 0
ion Se   0.888988043578003   0.444642524559231   0.309462952796716 0
ion Se   0.888488228627274   0.443642894657772   0.548916986642502 0
ion Se   0.777883016929057   0.556592279225913   0.434302092133100 0
ion Se   0.771178911962789   0.553294362561783   0.691992944227311 0
ion Se   0.222205428787900   0.777794598663713   0.308614087651652 0
ion Se   0.222134286075810   0.777865741375803   0.549327313400804 0
ion Se   0.111111196682796   0.888888830768817   0.434586286830789 0
ion Se   0.111111196682796   0.888888830768817   0.693465365336902 0
ion Se   0.555613501641918   0.777893440687060   0.308062461628315 0
ion Se   0.555917982492192   0.778502402387609   0.548875739379283 0
ion Se   0.443407748225700   0.887957202557982   0.434302092133100 0
ion Se   0.446705664889830   0.884551014255844   0.691992944227311 0
ion Se   0.888922732472587   0.777794598663713   0.308614087651652 0
ion Se   0.889065017896767   0.777865741375803   0.549327313400804 0
ion Se   0.777883016929057   0.887957202557982   0.434302092133100 0
ion Se   0.771178911962789   0.884551014255844   0.691992944227311 0


# Forces in Lattice coordinates:
force Zn  -0.002006073619860   0.000180528151987   0.325821225858675 0
force Zn   0.002006073619860  -0.001825545467873   0.325821225858220 0
force Zn   0.000000000000000  -0.000000000000000   0.307036228428682 0
force Zn  -0.001825545467872  -0.000180528151987   0.325821225858675 0
force Zn   0.000000000000000  -0.000000000000000   0.293761418138146 0
force Zn   0.001825545467873  -0.002006073619859   0.325821225858675 0
force Zn   0.000000000000000  -0.000000000000000   0.345903581667915 0
force Zn   0.000180528151987   0.001825545467872   0.325821225858220 0
force Zn  -0.000180528151987   0.002006073619860   0.325821225858220 0
force In   0.004769477285392  -0.004769477285392   0.573749820757958 0
force In   0.000000000000000  -0.050179411896125   0.035044332305534 0
force In  -0.004769477285392  -0.000000000000000   0.573749820757959 0
force In  -0.001587953108444  -0.000000000000000   0.044094802650109 0
force In   0.000000000000000   0.032394034172542   0.539307879085455 0
force In   0.001587953108443  -0.001587953108444   0.044094802650109 0
force In  -0.032394034172542  -0.000000000000000   0.539307879085513 0
force In   0.295743626866848  -0.000000000000000   0.488449404551383 0
force In   0.000000000000000  -0.031649584068707   0.548873502899407 0
force In  -0.295743626866851   0.295743626866849   0.488449404551383 0
force In   0.032394034172542  -0.032394034172542   0.539307879085456 0
force In   0.000000000000000   0.001587953108444   0.044094802650109 0
force In   0.000000000000000   0.004769477285392   0.573749820757959 0
force In  -0.050179411896125   0.050179411896125   0.035044332305534 0
force In  -0.031649584068704   0.031649584068707   0.548873502899522 0
force In   0.000000000000000  -0.295743626866849   0.488449404550019 0
force In   0.031649584068705  -0.000000000000000   0.548873502899521 0
force In   0.050179411896125  -0.000000000000000   0.035044332305534 0
force Se   0.000000000000000  -0.003764716258252  -0.914507862800073 0
force Se   0.000000000000000   0.011872368991777  -0.387410333812551 0
force Se   0.021660621500763  -0.006011165866770  -1.034356728279232 0
force Se  -0.041924070793330   0.174917370581330   1.224924306922187 0
force Se  -0.005750039226068  -0.000000000000000  -0.893974337994941 0
force Se   0.012875892350176  -0.000000000000000  -0.349499708999217 0
force Se  -0.021660621500763   0.015649455633993  -1.034356728279204 0
force Se   0.041924070793330   0.132993299788000   1.224924306922187 0
force Se   0.005750039226068  -0.005750039226068  -0.893974337994941 0
force Se  -0.012875892350176   0.012875892350177  -0.349499708999218 0
force Se   0.000000000000000   0.000000000000000  -1.033667640637717 0
force Se   0.000000000000000  -0.000000000000000   1.354079263060028 0
force Se   0.001810145093332  -0.000000000000000  -0.932516823344668 0
force Se  -0.053425184449531   0.000000000000000   0.063791311621856 0
force Se   0.015649455633993   0.006011165866770  -1.034356728279233 0
force Se   0.132993299788000  -0.174917370581328   1.224924306922187 0
force Se  -0.001810145093332   0.001810145093332  -0.932516823344668 0
force Se   0.053425184449531  -0.053425184449531   0.063791311621856 0
force Se   0.000000000000000  -0.000000000000000  -1.113100993324654 0
force Se   0.000000000000000   0.005750039226068  -0.893974337995395 0
force Se   0.000000000000000  -0.012875892350176  -0.349499708999217 0
force Se  -0.015649455633993   0.021660621500763  -1.034356728279233 0
force Se  -0.132993299787999  -0.041924070793330   1.224924306921960 0
force Se  -0.003764716258252   0.003764716258252  -0.914507862799618 0
force Se   0.011872368991777  -0.011872368991777  -0.387410333812438 0
force Se   0.000000000000000   0.000000000000000  -1.069850018177856 0
force Se   0.000000000000000  -0.000000000000000   1.366491223139575 0
force Se   0.000000000000000  -0.001810145093332  -0.932516823344667 0
force Se   0.000000000000000   0.053425184449531   0.063791311621857 0
force Se  -0.006011165866770  -0.015649455633993  -1.034356728279233 0
force Se   0.174917370581330  -0.132993299787999   1.224924306922414 0
force Se   0.003764716258252   0.000000000000000  -0.914507862800073 0
force Se  -0.011872368991777  -0.000000000000000  -0.387410333812438 0
force Se   0.006011165866770  -0.021660621500763  -1.034356728279232 0
force Se  -0.174917370581330   0.041924070793331   1.224924306921960 0

# Energy components:
   A_diel =       -0.1072130055154663
   Eewald =    24536.9613124512143258
       EH =    27645.8792998661119782
     Eloc =   -56064.0862211210696842
      Enl =      265.2851903033275676
      Exc =    -1052.2137548947241612
 Exc_core =      577.3629458884154246
       KE =      626.1477918929535917
-------------------------------------
     Etot =    -3464.7706486192896591
       TS =        0.0228347965058866
-------------------------------------
        F =    -3464.7934834157954356

IonicMinimize: Iter:   0  F: -3464.793483415795436  |grad|_K:  0.000e+00  t[s]:   2300.37
IonicMinimize: Converged (|grad|_K<1.000000e-04).

#--- Lowdin population analysis ---
# oxidation-state Zn -0.106 -0.106 -0.105 -0.106 -0.105 -0.106 -0.105 -0.106 -0.106
# oxidation-state In +0.409 +0.375 +0.409 +0.380 +0.405 +0.380 +0.405 +0.286 +0.406 +0.286 +0.405 +0.380 +0.409 +0.375 +0.406 +0.286 +0.406 +0.375
# oxidation-state Se -0.042 -0.258 -0.073 -0.128 -0.040 -0.250 -0.073 -0.128 -0.040 -0.250 -0.068 -0.114 -0.043 -0.243 -0.073 -0.128 -0.043 -0.243 -0.079 -0.040 -0.250 -0.073 -0.128 -0.042 -0.258 -0.077 -0.116 -0.043 -0.243 -0.073 -0.128 -0.042 -0.258 -0.073 -0.128


Dumping 'NbTe2.fillings' ... done
Dumping 'NbTe2.wfns' ... done
Dumping 'NbTe2.fluidState' ... done
Dumping 'NbTe2.eigenvals' ... done
End date and time: Fri Jul 17 19:53:15 2020  (Duration: 0-0:38:27.74)
Done!

*************** JDFTx 1.5.0  ***************

Start date and time: Sat Jul 18 07:29:29 2020
Executable jdftx_gpu with command-line: -i Neutral.in -o Neutral.out
Running on hosts (process indices):  amax (0-5)
Divided in process groups (process indices):  0 (0)  1 (1)  2 (2)  3 (3)  4 (4)  5 (5)
gpuInit: Found compatible cuda device 0 'Tesla K80'
gpuInit: Found compatible cuda device 1 'Tesla K80'
gpuInit: Found compatible cuda device 2 'Tesla K80'
gpuInit: Found compatible cuda device 3 'Tesla K80'
gpuInit: Found compatible cuda device 4 'Tesla K80'
gpuInit: Found compatible cuda device 5 'Tesla K80'
gpuInit: Selected device 0
Resource initialization completed at t[s]:      9.37
Run totals: 6 processes, 24 threads, 6 GPUs


Input parsed successfully to the following command list (including defaults):

basis kpoint-dependent
cache-projectors no
coords-type Lattice
core-overlap-check none
coulomb-interaction Slab 001
coulomb-truncation-embed 0 0 0.5
davidson-band-ratio 1.1
dump End State
dump-name NbTe2.$VAR
elec-cutoff 20 100
elec-eigen-algo Davidson
elec-ex-corr gga-PBE
elec-smearing Gauss 0.0073499
electronic-minimize  \
	dirUpdateScheme      FletcherReeves \
	linminMethod         DirUpdateRecommended \
	nIterations          500 \
	history              15 \
	knormThreshold       0 \
	energyDiffThreshold  1e-08 \
	nEnergyDiff          2 \
	alphaTstart          1 \
	alphaTmin            1e-10 \
	updateTestStepSize   yes \
	alphaTreduceFactor   0.1 \
	alphaTincreaseFactor 3 \
	nAlphaAdjustMax      3 \
	wolfeEnergy          0.0001 \
	wolfeGradient        0.9 \
	fdTest               no
exchange-regularization WignerSeitzTruncated
fluid LinearPCM 298.000000 1.013250
fluid-anion F- 1 MeanFieldLJ \
	epsBulk 1 \
	pMol 0 \
	epsInf 1 \
	Pvap 0 \
	sigmaBulk 0 \
	Rvdw 2.24877 \
	Res 0 \
	tauNuc 343133
fluid-cation Na+ 1 MeanFieldLJ \
	epsBulk 1 \
	pMol 0 \
	epsInf 1 \
	Pvap 0 \
	sigmaBulk 0 \
	Rvdw 2.19208 \
	Res 0 \
	tauNuc 343133
fluid-ex-corr lda-TF lda-PZ
fluid-gummel-loop 10 1.000000e-05
fluid-minimize  \
	dirUpdateScheme      PolakRibiere \
	linminMethod         DirUpdateRecommended \
	nIterations          400 \
	history              15 \
	knormThreshold       1e-11 \
	energyDiffThreshold  0 \
	nEnergyDiff          2 \
	alphaTstart          1 \
	alphaTmin            1e-10 \
	updateTestStepSize   yes \
	alphaTreduceFactor   0.1 \
	alphaTincreaseFactor 3 \
	nAlphaAdjustMax      6 \
	wolfeEnergy          0.0001 \
	wolfeGradient        0.9 \
	fdTest               no
fluid-solvent H2O 55.338 ScalarEOS \
	epsBulk 78.4 \
	pMol 0.92466 \
	epsInf 1.77 \
	Pvap 1.06736e-10 \
	sigmaBulk 4.62e-05 \
	Rvdw 2.61727 \
	Res 1.42 \
	tauNuc 343133 \
	poleEl 15 7 1
forces-output-coords Positions
initial-state NbTe2.$VAR
ion Zn   0.111674946202205   0.222681735609682   0.329255932420121 0
ion Zn   0.444336795407482   0.222681735609682   0.329255932420121 0
ion Zn   0.777779996000000   0.222220006999997   0.329274370845919 0
ion Zn   0.111674963202203   0.555663219592516   0.329255932420121 0
ion Zn   0.444440016999998   0.555560004999997   0.328906419606773 0
ion Zn   0.777318273390315   0.555663219592516   0.329255932420121 0
ion Zn   0.111110042999996   0.888890039000003   0.329190615118344 0
ion Zn   0.444336856407483   0.888325095797798   0.329255932420121 0
ion Zn   0.777318287390316   0.888325095797798   0.329255932420121 0
ion In  -0.000145585629577   0.000145585629577   0.485695394781003 0
ion In   0.223179030016992   0.113028053033991   0.648510028521651 0
ion In   0.333621178259155   0.000145585629577   0.485695394781003 0
ion In   0.553989490388433   0.110324752694216   0.648160629966248 0
ion In   0.666117968924275  -0.001104130151448   0.484712168478150 0
ion In   0.889675289305788   0.110324752694216   0.648160629966248 0
ion In   0.001104132151448   0.333882075075721   0.484712168478150 0
ion In   0.260052379024853   0.463356200012429   0.649471889050365 0
ion In   0.335055745177351   0.336781482354698   0.486055796289256 0
ion In   0.536643806987575   0.463356200012429   0.649471889050365 0
ion In   0.666117969924279   0.333882075075721   0.484712168478150 0
ion In   0.889675250305788   0.446010514611570   0.648160629966248 0
ion In  -0.000145586629574   0.666378860740844   0.485695394781003 0
ion In   0.223179058016995   0.776820986983006   0.648510028521651 0
ion In   0.335055742177347   0.664944295822649   0.486055796289256 0
ion In   0.536643812987575   0.739947639975145   0.649471889050365 0
ion In   0.663218560645303   0.664944295822649   0.486055796289256 0
ion In   0.886971955966007   0.776820986983006   0.648510028521651 0
ion S   0.222204234105101   0.111078461210209   0.308614087651652 0
ion S   0.222133091393011   0.110936175786028   0.549327313400804 0
ion S   0.112041640377505   0.222118179587071   0.434302092133100 0
ion S   0.115447828679643   0.228822284553339   0.691992944227311 0
ion S   0.555359650209589   0.111009832604794   0.309462952796716 0
ion S   0.556359280111048   0.111509647555523   0.548916986642502 0
ion S   0.443406545209570   0.222118179587071   0.434302092133100 0
ion S   0.446704461873700   0.228822284553339   0.691992944227311 0
ion S   0.888990209395210   0.111009832604794   0.309462952796716 0
ion S   0.888490394444481   0.111509647555523   0.548916986642502 0
ion S   0.777779996000000   0.222220006999997   0.434304861147628 0
ion S   0.777779996000000   0.222220006999997   0.693399324878097 0
ion S   0.222108725081756   0.444384373040881   0.308062461628315 0
ion S   0.221499763381207   0.444079892190606   0.548875739379283 0
ion S   0.112041657377503   0.556593469790428   0.434302092133100 0
ion S   0.115447845679641   0.553295553126297   0.691992944227311 0
ion S   0.555615633959124   0.444384373040881   0.308062461628315 0
ion S   0.555920114809398   0.444079892190606   0.548875739379283 0
ion S   0.444440016999998   0.555560004999997   0.432741354794532 0
ion S   0.888990170395210   0.444640354790415   0.309462952796716 0
ion S   0.888490355444481   0.443640724888956   0.548916986642502 0
ion S   0.777881829412927   0.556593469790428   0.434302092133100 0
ion S   0.771177724446659   0.553295553126297   0.691992944227311 0
ion S   0.222204262105103   0.777795782894897   0.308614087651652 0
ion S   0.222133119393013   0.777866925606987   0.549327313400804 0
ion S   0.111110042999996   0.888890039000003   0.434586286830789 0
ion S   0.111110042999996   0.888890039000003   0.693465365336902 0
ion S   0.555615639959124   0.777891293918242   0.308062461628315 0
ion S   0.555920120809398   0.778500255618791   0.548875739379283 0
ion S   0.443406606209572   0.887958401622499   0.434302092133100 0
ion S   0.446704522873702   0.884552213320361   0.691992944227311 0
ion S   0.888921547789789   0.777795782894897   0.308614087651652 0
ion S   0.889063833213969   0.777866925606987   0.549327313400804 0
ion S   0.777881843412928   0.887958401622499   0.434302092133100 0
ion S   0.771177738446660   0.884552213320361   0.691992944227311 0
ion-species GBRV/$ID_pbe.uspp
ion-width Ecut
ionic-minimize  \
	dirUpdateScheme      L-BFGS \
	linminMethod         DirUpdateRecommended \
	nIterations          0 \
	history              15 \
	knormThreshold       0.0001 \
	energyDiffThreshold  1e-06 \
	nEnergyDiff          2 \
	alphaTstart          1 \
	alphaTmin            1e-10 \
	updateTestStepSize   yes \
	alphaTreduceFactor   0.1 \
	alphaTincreaseFactor 3 \
	nAlphaAdjustMax      3 \
	wolfeEnergy          0.0001 \
	wolfeGradient        0.9 \
	fdTest               no
kpoint   0.000000000000   0.000000000000   0.000000000000  1.00000000000000
kpoint-folding 3 3 1 
latt-move-scale 1 1 1
latt-scale 1 1 1 
lattice Triclinic 22.0331 22.0331 46.3688 90 90 120
lattice-minimize  \
	dirUpdateScheme      L-BFGS \
	linminMethod         DirUpdateRecommended \
	nIterations          0 \
	history              15 \
	knormThreshold       0 \
	energyDiffThreshold  1e-06 \
	nEnergyDiff          2 \
	alphaTstart          1 \
	alphaTmin            1e-10 \
	updateTestStepSize   yes \
	alphaTreduceFactor   0.1 \
	alphaTincreaseFactor 3 \
	nAlphaAdjustMax      3 \
	wolfeEnergy          0.0001 \
	wolfeGradient        0.9 \
	fdTest               no
lcao-params -1 1e-06 0.0073499
pcm-variant CANDLE
spintype no-spin
subspace-rotation-factor 1 yes
symmetries automatic
symmetry-threshold 0.0001



---------- Setting up symmetries ----------

Found 24 point-group symmetries of the bravais lattice
Found 6 space-group symmetries with basis
Applied RMS atom displacement 6.88499e-05 bohrs to make symmetries exact.

---------- Initializing the Grid ----------
R = 
[    22.0331   -11.0165          0  ]
[          0    19.0812          0  ]
[          0          0    46.3688  ]
unit cell volume = 19494.2
G =
[   0.285171   0.164643         -0  ]
[          0   0.329287          0  ]
[          0         -0   0.135505  ]
Minimum fftbox size, Smin = [  100  100  212  ]
Chosen fftbox size, S = [  100  100  216  ]

---------- Initializing tighter grid for wavefunction operations ----------
R = 
[    22.0331   -11.0165          0  ]
[          0    19.0812          0  ]
[          0          0    46.3688  ]
unit cell volume = 19494.2
G =
[   0.285171   0.164643         -0  ]
[          0   0.329287          0  ]
[          0         -0   0.135505  ]
Minimum fftbox size, Smin = [  92  92  188  ]
Chosen fftbox size, S = [  96  96  192  ]

---------- Exchange Correlation functional ----------
Initalized PBE GGA exchange.
Initalized PBE GGA correlation.

---------- Setting up pseudopotentials ----------
Width of ionic core gaussian charges (only for fluid interactions / plotting) set to 0.397384

Reading pseudopotential file '/home/guoxy/vasp/jdftx-1.5.0/build/pseudopotentials/GBRV/zn_pbe.uspp':
  Title: Zn.  Created by USPP 7.3.6 on 14-9-2013
  Reference state energy: -230.738654.  20 valence electrons in orbitals:
    |300>  occupation: 2  eigenvalue: -4.749171
    |310>  occupation: 6  eigenvalue: -3.064985
    |320>  occupation: 10  eigenvalue: -0.372657
    |400>  occupation: 2  eigenvalue: -0.219719
    |410>  occupation: 0  eigenvalue: -0.040996
  lMax: 2  lLocal: 3  QijEcut: 5
  6 projectors sampled on a log grid with 687 points:
    l: 0  eig: -4.749172  rCut: 1.35
    l: 0  eig: -0.219719  rCut: 1.35
    l: 1  eig: -3.064985  rCut: 1.4
    l: 1  eig: -0.040997  rCut: 1.4
    l: 2  eig: -0.372656  rCut: 1.6
    l: 2  eig: 1.000000  rCut: 1.6
  Transforming local potential to a uniform radial grid of dG=0.02 with 1608 points.
  Transforming nonlocal projectors to a uniform radial grid of dG=0.02 with 432 points.
  Transforming density augmentations to a uniform radial grid of dG=0.02 with 1608 points.
  Transforming atomic orbitals to a uniform radial grid of dG=0.02 with 432 points.
  Core radius for overlap checks: 1.80 bohrs.

Reading pseudopotential file '/home/guoxy/vasp/jdftx-1.5.0/build/pseudopotentials/GBRV/in_pbe.uspp':
  Title: In.  Created by USPP 7.3.6 on 31-3-15
  Reference state energy: -66.141337.  13 valence electrons in orbitals:
    |420>  occupation: 10  eigenvalue: -1.145775
    |500>  occupation: 1.5  eigenvalue: -0.705913
    |510>  occupation: 0  eigenvalue: -0.449223
  lMax: 2  lLocal: 3  QijEcut: 5.5
  6 projectors sampled on a log grid with 719 points:
    l: 0  eig: -0.705911  rCut: 1.8
    l: 0  eig: 1.000000  rCut: 1.8
    l: 1  eig: -0.705911  rCut: 2
    l: 1  eig: 1.000000  rCut: 2
    l: 2  eig: -1.145775  rCut: 1.65
    l: 2  eig: 0.750000  rCut: 1.65
  Partial core density with radius 1.4
  Transforming core density to a uniform radial grid of dG=0.02 with 1608 points.
  Transforming local potential to a uniform radial grid of dG=0.02 with 1608 points.
  Transforming nonlocal projectors to a uniform radial grid of dG=0.02 with 432 points.
  Transforming density augmentations to a uniform radial grid of dG=0.02 with 1608 points.
  Transforming atomic orbitals to a uniform radial grid of dG=0.02 with 432 points.
  Core radius for overlap checks: 2.40 bohrs.

Reading pseudopotential file '/home/guoxy/vasp/jdftx-1.5.0/build/pseudopotentials/GBRV/s_pbe.uspp':
  Title: S.  Created by USPP 7.3.6 on 1-4-15
  Reference state energy: -11.898476.  6 valence electrons in orbitals:
    |300>  occupation: 2  eigenvalue: -0.634167
    |310>  occupation: 4  eigenvalue: -0.257568
  lMax: 2  lLocal: 3  QijEcut: 6
  6 projectors sampled on a log grid with 635 points:
    l: 0  eig: -0.634161  rCut: 1.5
    l: 0  eig: 1.500000  rCut: 1.5
    l: 1  eig: -0.257567  rCut: 1.5
    l: 1  eig: 1.500000  rCut: 1.5
    l: 2  eig: -1.000000  rCut: 1.5
    l: 2  eig: 1.500000  rCut: 1.5
  Partial core density with radius 1.15
  Transforming core density to a uniform radial grid of dG=0.02 with 1608 points.
  Transforming local potential to a uniform radial grid of dG=0.02 with 1608 points.
  Transforming nonlocal projectors to a uniform radial grid of dG=0.02 with 432 points.
  Transforming density augmentations to a uniform radial grid of dG=0.02 with 1608 points.
  Transforming atomic orbitals to a uniform radial grid of dG=0.02 with 432 points.
  Core radius for overlap checks: 1.50 bohrs.

Initialized 3 species with 62 total atoms.

Folded 1 k-points by 3x3x1 to 9 k-points.

---------- Setting up k-points, bands, fillings ----------
Adding inversion symmetry to k-mesh for non-inversion-symmetric unit cell.
Reduced to 3 k-points under symmetry. 
Computing the number of bands and number of electrons
Calculating initial fillings.
nElectrons: 624.000000   nBands: 419   nStates: 3

----- Setting up reduced wavefunction bases (one per k-point) -----
average nbasis = 83283.667 , ideal nbasis = 83280.880

---------- Setting up coulomb interaction ----------
Fluid mode embedding: using embedded box, but periodic Coulomb kernel.
(Fluid response is responsible for (approximate) separation between periodic images.)
Setting up double-sized grid for truncated Coulomb potentials:
R = 
[    22.0331   -11.0165          0  ]
[          0    19.0812          0  ]
[          0          0    92.7375  ]
unit cell volume = 38988.5
G =
[   0.285171   0.164643         -0  ]
[          0   0.329287          0  ]
[          0         -0  0.0677523  ]
Chosen fftbox size, S = [  100  100  432  ]
Integer grid location selected as the embedding center:
   Grid: [  0  0  108  ]
   Lattice: [  0  0  0.5  ]
   Cartesian: [  0  0  23.1844  ]
Constructing Wigner-Seitz cell: 8 faces (6 quadrilaterals, 2 hexagons)
Range-separation parameter for embedded mesh potentials due to point charges: 0.592172 bohrs.

Initializing van der Waals corrections
	NOTE: vdW corrections apply only for interactions with fluid.
	Zn:  C6:  187.33 Eh-a0^6  R0: 2.952 a0
	In:  C6:  647.33 Eh-a0^6  R0: 3.160 a0
	 S:  C6:   96.61 Eh-a0^6  R0: 3.180 a0

---------- Setting up ewald sum ----------
Optimum gaussian width for ewald sums = 6.799707 bohr.
Real space sum over 605 unit cells with max indices [  5  5  2  ]
Reciprocal space sum over 7605 terms with max indices [  6  6  22  ]

---------- Allocating electronic variables ----------
Initializing wave functions:  linear combination of atomic orbitals
Zn pseudo-atom occupations:   s ( 2 2 )  p ( 6 0 )  d ( 10 )
In pseudo-atom occupations:   s ( 2 )  p ( 1 )  d ( 10 )
S pseudo-atom occupations:   s ( 2 )  p ( 4 )
	FillingsUpdate:  mu: -0.013492084  nElectrons: 624.000000
LCAOMinimize: Iter:   0  F: -3485.4478570641072110  |grad|_K:  5.324e-03  alpha:  1.000e+00
	FillingsUpdate:  mu: -0.017809037  nElectrons: 624.000000
LCAOMinimize: Iter:   1  F: -3485.5224295817120037  |grad|_K:  5.267e-03  alpha:  4.990e-03  linmin: -1.234e-01  cgtest:  9.967e-01  t[s]:     59.89
LCAOMinimize: Encountered beta<0, resetting CG.
LCAOMinimize: 	Predicted alpha/alphaT>3.000000, increasing alphaT to 1.497106e-02.
LCAOMinimize: 	Predicted alpha/alphaT>3.000000, increasing alphaT to 4.491318e-02.
LCAOMinimize: 	Predicted alpha/alphaT>3.000000, increasing alphaT to 1.347395e-01.
LCAOMinimize: 	Step increased F by 1.155195e+03, reducing alpha to 8.038186e-02.
	FillingsUpdate:  mu: -0.097283644  nElectrons: 624.000000
LCAOMinimize: Iter:   2  F: -3486.6524802202648061  |grad|_K:  4.514e-03  alpha:  8.038e-02  linmin: -1.308e-01  cgtest:  8.851e-01  t[s]:    105.47
LCAOMinimize: Encountered beta<0, resetting CG.
LCAOMinimize: 	Wrong curvature in test step, increasing alphaT to 2.411456e-01.
	FillingsUpdate:  mu: -0.131926377  nElectrons: 624.000000
LCAOMinimize: Iter:   3  F: -3487.8202642647906941  |grad|_K:  3.308e-03  alpha: -1.157e-01  linmin:  7.237e-02  cgtest:  3.717e-01  t[s]:    126.21
	FillingsUpdate:  mu: -0.101420179  nElectrons: 624.000000
LCAOMinimize: Iter:   4  F: -3487.9778869965452941  |grad|_K:  4.021e-03  alpha:  4.823e-02  linmin: -3.648e-02  cgtest:  9.408e-01  t[s]:    143.78
	FillingsUpdate:  mu: -0.103668793  nElectrons: 624.000000
LCAOMinimize: Iter:   5  F: -3488.2263378683510382  |grad|_K:  2.456e-03  alpha:  5.207e-02  linmin: -1.999e-02  cgtest: -2.175e-01  t[s]:    163.11
LCAOMinimize: 	Predicted alpha/alphaT>3.000000, increasing alphaT to 1.562155e-01.
	FillingsUpdate:  mu: -0.087814915  nElectrons: 624.000000
LCAOMinimize: Iter:   6  F: -3488.5886433313266934  |grad|_K:  1.031e-03  alpha:  2.137e-01  linmin:  5.441e-02  cgtest: -1.727e-01  t[s]:    186.69
	FillingsUpdate:  mu: -0.103802285  nElectrons: 624.000000
LCAOMinimize: Iter:   7  F: -3488.6320150144815671  |grad|_K:  5.247e-04  alpha:  2.076e-01  linmin:  5.421e-03  cgtest:  6.600e-01  t[s]:    207.40
LCAOMinimize: Encountered beta<0, resetting CG.
	FillingsUpdate:  mu: -0.116350345  nElectrons: 624.000000
LCAOMinimize: Iter:   8  F: -3488.6431445375101248  |grad|_K:  5.873e-04  alpha:  1.529e-01  linmin: -4.748e-05  cgtest:  1.412e-02  t[s]:    225.50
	FillingsUpdate:  mu: -0.113649663  nElectrons: 624.000000
LCAOMinimize: Iter:   9  F: -3488.6479443672651541  |grad|_K:  1.529e-04  alpha:  5.528e-02  linmin:  1.520e-02  cgtest: -2.231e-01  t[s]:    243.89
LCAOMinimize: 	Predicted alpha/alphaT>3.000000, increasing alphaT to 1.658310e-01.
	FillingsUpdate:  mu: -0.115075176  nElectrons: 624.000000
LCAOMinimize: Iter:  10  F: -3488.6493914382717776  |grad|_K:  9.814e-05  alpha:  2.508e-01  linmin:  7.022e-04  cgtest:  1.710e-01  t[s]:    268.52
	FillingsUpdate:  mu: -0.112682636  nElectrons: 624.000000
LCAOMinimize: Iter:  11  F: -3488.6496353619390902  |grad|_K:  9.061e-05  alpha:  9.678e-02  linmin:  8.727e-04  cgtest: -1.876e-02  t[s]:    287.13
	FillingsUpdate:  mu: -0.113445334  nElectrons: 624.000000
LCAOMinimize: Iter:  12  F: -3488.6497794871888800  |grad|_K:  2.626e-05  alpha:  6.654e-02  linmin:  1.723e-04  cgtest:  2.951e-02  t[s]:    305.73
LCAOMinimize: 	Predicted alpha/alphaT>3.000000, increasing alphaT to 1.996147e-01.
	FillingsUpdate:  mu: -0.112989496  nElectrons: 624.000000
LCAOMinimize: Iter:  13  F: -3488.6498258941805943  |grad|_K:  2.022e-05  alpha:  2.545e-01  linmin:  2.567e-04  cgtest: -6.196e-03  t[s]:    330.57
	FillingsUpdate:  mu: -0.113414837  nElectrons: 624.000000
LCAOMinimize: Iter:  14  F: -3488.6498377188481754  |grad|_K:  2.248e-05  alpha:  1.092e-01  linmin: -1.282e-04  cgtest:  5.574e-03  t[s]:    350.28
	FillingsUpdate:  mu: -0.113157630  nElectrons: 624.000000
LCAOMinimize: Iter:  15  F: -3488.6498487338394625  |grad|_K:  7.994e-06  alpha:  8.229e-02  linmin: -1.056e-04  cgtest: -6.617e-03  t[s]:    370.34
LCAOMinimize: 	Predicted alpha/alphaT>3.000000, increasing alphaT to 2.468564e-01.
	FillingsUpdate:  mu: -0.113263134  nElectrons: 624.000000
LCAOMinimize: Iter:  16  F: -3488.6498532003474793  |grad|_K:  5.569e-06  alpha:  2.641e-01  linmin:  1.139e-04  cgtest: -4.079e-04  t[s]:    395.00
	FillingsUpdate:  mu: -0.113138082  nElectrons: 624.000000
LCAOMinimize: Iter:  17  F: -3488.6498538956666380  |grad|_K:  5.527e-06  alpha:  8.482e-02  linmin:  3.374e-05  cgtest: -1.572e-04  t[s]:    414.52
	FillingsUpdate:  mu: -0.113172998  nElectrons: 624.000000
[...]
	Linear fluid (dielectric constant: 78.4, screening length: 5.74355 Bohr) occupying 0.695897 of unit cell:	Completed after 0 iterations at t[s]:   2329.51
ElecMinimize: 	Predicted alpha/alphaT>3.000000, increasing alphaT to 6.762658e-02.
	Linear fluid (dielectric constant: 78.4, screening length: 5.74355 Bohr) occupying 0.695897 of unit cell:	Completed after 0 iterations at t[s]:   2339.21
	Linear fluid (dielectric constant: 78.4, screening length: 5.74355 Bohr) occupying 0.695897 of unit cell:	Completed after 0 iterations at t[s]:   2350.28
	FillingsUpdate:  mu: -0.199621140  nElectrons: 624.000000
	SubspaceRotationAdjust: set factor to 0.712
ElecMinimize: Iter:  20  F: -3490.005423800191238  |grad|_K:  7.586e-08  alpha:  8.029e-02  linmin:  3.118e-07  t[s]:   2363.47
	Linear fluid (dielectric constant: 78.4, screening length: 5.74355 Bohr) occupying 0.695896 of unit cell:	Completed after 2 iterations at t[s]:   2373.27
	Linear fluid (dielectric constant: 78.4, screening length: 5.74355 Bohr) occupying 0.695897 of unit cell:	Completed after 0 iterations at t[s]:   2383.86
ElecMinimize: 	Step increased F by 4.353114e-08, reducing alpha to 2.247283e-03.
	Linear fluid (dielectric constant: 78.4, screening length: 5.74355 Bohr) occupying 0.695897 of unit cell:	Completed after 0 iterations at t[s]:   2405.31
ElecMinimize: 	Step increased F by 3.848254e-08, reducing alpha to 2.247283e-04.
	Linear fluid (dielectric constant: 78.4, screening length: 5.74355 Bohr) occupying 0.695897 of unit cell:	Completed after 0 iterations at t[s]:   2425.96
ElecMinimize: 	Step increased F by 3.813057e-08, reducing alpha to 2.247283e-05.
ElecMinimize: 	Step failed to reduce F after 3 attempts. Quitting step.
ElecMinimize: 	Undoing step.
	Linear fluid (dielectric constant: 78.4, screening length: 5.74355 Bohr) occupying 0.695897 of unit cell:	Completed after 0 iterations at t[s]:   2445.10
ElecMinimize: 	Step failed: resetting search direction.
	FillingsUpdate:  mu: -0.199635991  nElectrons: 624.000000
	SubspaceRotationAdjust: set factor to 0.432
ElecMinimize: Iter:  21  F: -3490.005423762039754  |grad|_K:  4.642e-08  alpha:  2.247e-05
	Linear fluid (dielectric constant: 78.4, screening length: 5.74355 Bohr) occupying 0.695897 of unit cell:	Completed after 0 iterations at t[s]:   2466.25
ElecMinimize: 	Predicted alpha/alphaT>3.000000, increasing alphaT to 2.408803e-01.
	Linear fluid (dielectric constant: 78.4, screening length: 5.74355 Bohr) occupying 0.695897 of unit cell:	Completed after 0 iterations at t[s]:   2502.04
	Linear fluid (dielectric constant: 78.4, screening length: 5.74355 Bohr) occupying 0.695897 of unit cell:	Completed after 0 iterations at t[s]:   2543.06
	FillingsUpdate:  mu: -0.199633966  nElectrons: 624.000000
	SubspaceRotationAdjust: set factor to 0.683
ElecMinimize: Iter:  22  F: -3490.005423790529221  |grad|_K:  1.985e-08  alpha:  1.777e-01  linmin: -4.754e-04  t[s]:   2583.36
	Linear fluid (dielectric constant: 78.4, screening length: 5.74355 Bohr) occupying 0.695897 of unit cell:	Completed after 0 iterations at t[s]:   2614.66
ElecMinimize: 	Predicted alpha/alphaT>3.000000, increasing alphaT to 5.332434e-01.
	Linear fluid (dielectric constant: 78.4, screening length: 5.74355 Bohr) occupying 0.695898 of unit cell:	Completed after 2 iterations at t[s]:   2626.84
	Linear fluid (dielectric constant: 78.4, screening length: 5.74355 Bohr) occupying 0.695897 of unit cell:	Completed after 0 iterations at t[s]:   2637.11
ElecMinimize: 	Step increased F by 3.428659e-08, reducing alpha to 1.327964e-02.
	Linear fluid (dielectric constant: 78.4, screening length: 5.74355 Bohr) occupying 0.695897 of unit cell:	Completed after 0 iterations at t[s]:   2656.00
ElecMinimize: 	Step increased F by 3.241939e-08, reducing alpha to 1.327964e-03.
	Linear fluid (dielectric constant: 78.4, screening length: 5.74355 Bohr) occupying 0.695897 of unit cell:	Completed after 0 iterations at t[s]:   2676.03
ElecMinimize: 	Step increased F by 3.241757e-08, reducing alpha to 1.327964e-04.
ElecMinimize: 	Step failed to reduce F after 3 attempts. Quitting step.
ElecMinimize: 	Undoing step.
	Linear fluid (dielectric constant: 78.4, screening length: 5.74355 Bohr) occupying 0.695897 of unit cell:	Completed after 0 iterations at t[s]:   2696.25
ElecMinimize: 	Step failed: resetting search direction.
	FillingsUpdate:  mu: -0.199635946  nElectrons: 624.000000
	SubspaceRotationAdjust: set factor to 0.558
ElecMinimize: Iter:  23  F: -3490.005423758166671  |grad|_K:  5.097e-08  alpha:  1.328e-04
	Linear fluid (dielectric constant: 78.4, screening length: 5.74355 Bohr) occupying 0.695897 of unit cell:	Completed after 0 iterations at t[s]:   2718.87
ElecMinimize: 	Predicted alpha/alphaT>3.000000, increasing alphaT to 5.332434e-01.
	Linear fluid (dielectric constant: 78.4, screening length: 5.74355 Bohr) occupying 0.695895 of unit cell:	Completed after 3 iterations at t[s]:   2730.48
	Linear fluid (dielectric constant: 78.4, screening length: 5.74355 Bohr) occupying 0.695897 of unit cell:	Completed after 1 iterations at t[s]:   2741.45
	FillingsUpdate:  mu: -0.199638396  nElectrons: 624.000000
	SubspaceRotationAdjust: set factor to 0.342
ElecMinimize: Iter:  24  F: -3490.005423809636795  |grad|_K:  4.358e-08  alpha:  1.476e-01  linmin:  4.946e-04  t[s]:   2754.56
	Linear fluid (dielectric constant: 78.4, screening length: 5.74355 Bohr) occupying 0.695897 of unit cell:	Completed after 0 iterations at t[s]:   2765.16
ElecMinimize: 	Predicted alpha/alphaT>3.000000, increasing alphaT to 4.427919e-01.
	Linear fluid (dielectric constant: 78.4, screening length: 5.74355 Bohr) occupying 0.695897 of unit cell:	Completed after 0 iterations at t[s]:   2775.49
	Linear fluid (dielectric constant: 78.4, screening length: 5.74355 Bohr) occupying 0.695897 of unit cell:	Completed after 0 iterations at t[s]:   2786.59
	FillingsUpdate:  mu: -0.199638722  nElectrons: 624.000000
	SubspaceRotationAdjust: set factor to 0.325
ElecMinimize: Iter:  25  F: -3490.005423821262866  |grad|_K:  3.004e-08  alpha:  3.032e-01  linmin: -1.017e-04  t[s]:   2798.21
	Linear fluid (dielectric constant: 78.4, screening length: 5.74355 Bohr) occupying 0.695897 of unit cell:	Completed after 2 iterations at t[s]:   2809.06
	Linear fluid (dielectric constant: 78.4, screening length: 5.74355 Bohr) occupying 0.695897 of unit cell:	Completed after 0 iterations at t[s]:   2818.95
ElecMinimize: 	Step increased F by 1.310082e-08, reducing alpha to 8.176310e-03.
	Linear fluid (dielectric constant: 78.4, screening length: 5.74355 Bohr) occupying 0.695897 of unit cell:	Completed after 0 iterations at t[s]:   2838.92
ElecMinimize: 	Step increased F by 2.101842e-09, reducing alpha to 8.176310e-04.
	Linear fluid (dielectric constant: 78.4, screening length: 5.74355 Bohr) occupying 0.695897 of unit cell:	Completed after 0 iterations at t[s]:   2858.76
ElecMinimize: 	Step increased F by 1.117314e-09, reducing alpha to 8.176310e-05.
ElecMinimize: 	Step failed to reduce F after 3 attempts. Quitting step.
ElecMinimize: 	Undoing step.
	Linear fluid (dielectric constant: 78.4, screening length: 5.74355 Bohr) occupying 0.695897 of unit cell:	Completed after 0 iterations at t[s]:   2880.01
ElecMinimize: 	Step failed: resetting search direction.
	FillingsUpdate:  mu: -0.199630491  nElectrons: 624.000000
	SubspaceRotationAdjust: set factor to 0.322
ElecMinimize: Iter:  26  F: -3490.005423820157830  |grad|_K:  4.530e-08  alpha:  8.176e-05
	Linear fluid (dielectric constant: 78.4, screening length: 5.74355 Bohr) occupying 0.695897 of unit cell:	Completed after 2 iterations at t[s]:   2902.27
	Linear fluid (dielectric constant: 78.4, screening length: 5.74355 Bohr) occupying 0.695897 of unit cell:	Completed after 0 iterations at t[s]:   2911.84
	FillingsUpdate:  mu: -0.199643791  nElectrons: 624.000000
	SubspaceRotationAdjust: set factor to 0.317
ElecMinimize: Iter:  27  F: -3490.005423842845630  |grad|_K:  6.093e-08  alpha:  8.005e-02  linmin:  7.993e-04  t[s]:   2922.13
ElecMinimize: 	Bad step direction: g.d > 0.
ElecMinimize: 	Undoing step.
	Linear fluid (dielectric constant: 78.4, screening length: 5.74355 Bohr) occupying 0.695897 of unit cell:	Completed after 0 iterations at t[s]:   2928.83
ElecMinimize: 	Step failed: resetting search direction.
	FillingsUpdate:  mu: -0.199643791  nElectrons: 624.000000
	SubspaceRotationAdjust: set factor to 0.335
ElecMinimize: Iter:  28  F: -3490.005423842838354  |grad|_K:  6.091e-08  alpha:  0.000e+00
	Linear fluid (dielectric constant: 78.4, screening length: 5.74355 Bohr) occupying 0.695897 of unit cell:	Completed after 1 iterations at t[s]:   2943.57
	Linear fluid (dielectric constant: 78.4, screening length: 5.74355 Bohr) occupying 0.695897 of unit cell:	Completed after 0 iterations at t[s]:   2949.91
ElecMinimize: 	Step increased F by 2.740308e-08, reducing alpha to 3.005667e-03.
	Linear fluid (dielectric constant: 78.4, screening length: 5.74355 Bohr) occupying 0.695897 of unit cell:	Completed after 0 iterations at t[s]:   2962.72
ElecMinimize: 	Step increased F by 3.279956e-08, reducing alpha to 3.005667e-04.
	Linear fluid (dielectric constant: 78.4, screening length: 5.74355 Bohr) occupying 0.695897 of unit cell:	Completed after 0 iterations at t[s]:   2975.60
ElecMinimize: 	Step increased F by 3.341484e-08, reducing alpha to 3.005667e-05.
ElecMinimize: 	Step failed to reduce F after 3 attempts. Quitting step.
ElecMinimize: 	Undoing step.
	Linear fluid (dielectric constant: 78.4, screening length: 5.74355 Bohr) occupying 0.695897 of unit cell:	Completed after 0 iterations at t[s]:   2988.60
ElecMinimize: 	Step failed along negative gradient direction.
ElecMinimize: Probably at roundoff error limit. (Stopping)
Setting wave functions to eigenvectors of Hamiltonian
Single-point solvation energy estimate, DeltaF = -0.015747701524106

# Ionic positions in lattice coordinates:
ion Zn   0.111676130718332   0.222680566545168   0.329255932420121 0
ion Zn   0.444337998423611   0.222680566545168   0.329255932420121 0
ion Zn   0.777777863349463   0.222222164102150   0.329274370845919 0
ion Zn   0.111676130718332   0.555662029028002   0.329255932420121 0
ion Zn   0.444444530016129   0.555555497435484   0.328906419606773 0
ion Zn   0.777319460906445   0.555662029028002   0.329255932420121 0
ion Zn   0.111111196682796   0.888888830768817   0.329190615118344 0
ion Zn   0.444337998423611   0.888323896733281   0.329255932420121 0
ion Zn   0.777319460906445   0.888323896733281   0.329255932420121 0
ion In  -0.000144384780115   0.000144412231728   0.485695394781003 0
ion In   0.223180224699792   0.113026886802808   0.648510028521651 0
ion In   0.333622359608618   0.000144412231728   0.485695394781003 0
ion In   0.553987343071226   0.110326903963032   0.648160629966248 0
ion In   0.666115802107073  -0.001101958382629   0.484712168478150 0
ion In   0.889673123488581   0.110326903963032   0.648160629966248 0
ion In   0.001101985834242   0.333884225344540   0.484712168478150 0
ion In   0.260050240707650   0.463358352781244   0.649471889050365 0
ion In   0.335056924693478   0.336780286790181   0.486055796289256 0
ion In   0.536641674670369   0.463358352781244   0.649471889050365 0
ion In   0.666115802107073   0.333884225344540   0.484712168478150 0
ion In   0.889673123488581   0.446012684380387   0.648160629966248 0
ion In  -0.000144384780115   0.666377667842995   0.485695394781003 0
ion In   0.223180224699792   0.776819802751821   0.648510028521651 0
ion In   0.335056924693478   0.664943102758135   0.486055796289256 0
ion In   0.536641674670369   0.739949786743963   0.649471889050365 0
ion In   0.663219740661432   0.664943102758135   0.486055796289256 0
ion In   0.886973140648805   0.776819802751821   0.648510028521651 0
ion S   0.222205428787900   0.111077294979026   0.308614087651652 0
ion S   0.222134286075810   0.110935009554846   0.549327313400804 0
ion S   0.112042824893631   0.222117010522556   0.434302092133100 0
ion S   0.115449013195769   0.228821115488824   0.691992944227311 0
ion S   0.555357502892382   0.111011983873610   0.309462952796716 0
ion S   0.556357132793841   0.111511798824339   0.548916986642502 0
ion S   0.443407748225700   0.222117010522556   0.434302092133100 0
ion S   0.446705664889830   0.228821115488824   0.691992944227311 0
ion S   0.888988043578003   0.111011983873610   0.309462952796716 0
ion S   0.888488228627274   0.111511798824339   0.548916986642502 0
ion S   0.777777863349463   0.222222164102150   0.434304861147628 0
ion S   0.777777863349463   0.222222164102150   0.693399324878097 0
ion S   0.222106586764553   0.444386525809695   0.308062461628315 0
ion S   0.221497625064004   0.444082044959421   0.548875739379283 0
ion S   0.112042824893631   0.556592279225913   0.434302092133100 0
ion S   0.115449013195769   0.553294362561783   0.691992944227311 0
ion S   0.555613501641918   0.444386525809695   0.308062461628315 0
ion S   0.555917982492192   0.444082044959421   0.548875739379283 0
ion S   0.444444530016129   0.555555497435484   0.432741354794532 0
ion S   0.888988043578003   0.444642524559231   0.309462952796716 0
ion S   0.888488228627274   0.443642894657772   0.548916986642502 0
ion S   0.777883016929057   0.556592279225913   0.434302092133100 0
ion S   0.771178911962789   0.553294362561783   0.691992944227311 0
ion S   0.222205428787900   0.777794598663713   0.308614087651652 0
ion S   0.222134286075810   0.777865741375803   0.549327313400804 0
ion S   0.111111196682796   0.888888830768817   0.434586286830789 0
ion S   0.111111196682796   0.888888830768817   0.693465365336902 0
ion S   0.555613501641918   0.777893440687060   0.308062461628315 0
ion S   0.555917982492192   0.778502402387609   0.548875739379283 0
ion S   0.443407748225700   0.887957202557982   0.434302092133100 0
ion S   0.446705664889830   0.884551014255844   0.691992944227311 0
ion S   0.888922732472587   0.777794598663713   0.308614087651652 0
ion S   0.889065017896767   0.777865741375803   0.549327313400804 0
ion S   0.777883016929057   0.887957202557982   0.434302092133100 0
ion S   0.771178911962789   0.884551014255844   0.691992944227311 0


# Forces in Lattice coordinates:
force Zn  -0.001239707563921  -0.001604784807212  -0.002801887125635 0
force Zn   0.001239707563921  -0.002844492371132  -0.002801887125635 0
force Zn   0.000000000000000  -0.000000000000000  -0.003190244825610 0
force Zn  -0.002844492371133   0.001604784807212  -0.002801887126090 0
force Zn   0.000000000000000  -0.000000000000000  -0.011217479899120 0
force Zn   0.002844492371132  -0.001239707563921  -0.002801887125635 0
force Zn   0.000000000000000   0.000000000000000   0.001446842398508 0
force Zn  -0.001604784807212   0.002844492371132  -0.002801887125635 0
force Zn   0.001604784807212   0.001239707563921  -0.002801887125635 0
force In   0.004419906508737  -0.004419906508737   0.176525191944274 0
force In   0.000000000000000   0.000197408574207   0.230093880320672 0
force In  -0.004419906508737  -0.000000000000000   0.176525191944331 0
force In   0.011235798412688  -0.000000000000000   0.206692298214623 0
force In   0.000000000000000   0.009512665451602   0.185799541527598 0
force In  -0.011235798412688   0.011235798412688   0.206692298214623 0
force In  -0.009512665451602   0.000000000000000   0.185799541527712 0
force In  -0.049023091309473   0.000000000000000   0.234270375131281 0
force In   0.000000000000000  -0.007954266462612   0.186231673838484 0
force In   0.049023091309473  -0.049023091309473   0.234270375131281 0
force In   0.009512665451602  -0.009512665451601   0.185799541527712 0
force In   0.000000000000000  -0.011235798412688   0.206692298214623 0
force In   0.000000000000000   0.004419906508737   0.176525191944274 0
force In   0.000197408574207  -0.000197408574208   0.230093880320672 0
force In  -0.007954266462610   0.007954266462612   0.186231673838598 0
force In   0.000000000000000   0.049023091309473   0.234270375131281 0
force In   0.007954266462612  -0.000000000000000   0.186231673838483 0
force In  -0.000197408574207   0.000000000000000   0.230093880320672 0
force S   0.000000000000000  -0.001158059086495  -0.111860726060267 0
force S   0.000000000000000   0.000717957222380  -0.187316222625062 0
force S   0.003117810196358  -0.000853938127449  -0.039750059825845 0
force S   0.012319210655842   0.012356991944810  -0.077297613803062 0
force S  -0.000315596441564  -0.000000000000000  -0.117509135548229 0
force S  -0.001597464366824   0.000000000000000  -0.179390055750491 0
force S  -0.003117810196358   0.002263872068908  -0.039750059825817 0
force S  -0.012319210655843   0.024676202600652  -0.077297613803062 0
force S   0.000315596441564  -0.000315596441564  -0.117509135548229 0
force S   0.001597464366823  -0.001597464366823  -0.179390055750491 0
force S   0.000000000000000   0.000000000000000  -0.043033927353107 0
force S   0.000000000000000   0.000000000000000  -0.084627212563626 0
force S   0.000000105715518  -0.000000000000000  -0.111741095849567 0
force S   0.002565238913096  -0.000000000000000  -0.162111992438749 0
force S   0.002263872068908   0.000853938127449  -0.039750059825845 0
force S   0.024676202600651  -0.012356991944807  -0.077297613803062 0
force S  -0.000000105715518   0.000000105715518  -0.111741095849568 0
force S  -0.002565238913098   0.002565238913096  -0.162111992438749 0
force S   0.000000000000000   0.000000000000000  -0.059860484713963 0
force S   0.000000000000000   0.000315596441564  -0.117509135548684 0
force S   0.000000000000000   0.001597464366823  -0.179390055750491 0
force S  -0.002263872068908   0.003117810196358  -0.039750059825845 0
force S  -0.024676202600652   0.012319210655843  -0.077297613803062 0
force S  -0.001158059086495   0.001158059086495  -0.111860726060267 0
force S   0.000717957222380  -0.000717957222379  -0.187316222625062 0
force S   0.000000000000000   0.000000000000000  -0.045657599883051 0
force S   0.000000000000000   0.000000000000000  -0.065876854978520 0
force S   0.000000000000000  -0.000000105715518  -0.111741095849795 0
force S   0.000000000000000  -0.002565238913098  -0.162111992438749 0
force S  -0.000853938127449  -0.002263872068908  -0.039750059825845 0
force S   0.012356991944805  -0.024676202600652  -0.077297613803062 0
force S   0.001158059086495   0.000000000000000  -0.111860726060267 0
force S  -0.000717957222380   0.000000000000000  -0.187316222625062 0
force S   0.000853938127450  -0.003117810196358  -0.039750059825817 0
force S  -0.012356991944810  -0.012319210655842  -0.077297613803062 0

# Energy components:
   A_diel =       -0.1138901835146070
   Eewald =    24536.9613124512143258
       EH =    27667.8345353254844667
     Eloc =   -56111.9244057370524388
      Enl =      237.6088632278791692
      Exc =     -678.0205439386755870
 Exc_core =      211.2418354372041165
       KE =      646.4347306200742196
-------------------------------------
     Etot =    -3489.9775627973831433
       TS =        0.0278610119845608
-------------------------------------
        F =    -3490.0054238093675849

IonicMinimize: Iter:   0  F: -3490.005423809367585  |grad|_K:  0.000e+00  t[s]:   3003.59
IonicMinimize: Converged (|grad|_K<1.000000e-04).

#--- Lowdin population analysis ---
# oxidation-state Zn +0.049 +0.049 +0.049 +0.049 +0.050 +0.049 +0.051 +0.049 +0.049
# oxidation-state In +0.580 +0.537 +0.580 +0.545 +0.577 +0.545 +0.577 +0.414 +0.577 +0.414 +0.577 +0.545 +0.580 +0.537 +0.577 +0.414 +0.577 +0.537
# oxidation-state S -0.169 -0.374 -0.206 -0.249 -0.168 -0.368 -0.206 -0.249 -0.168 -0.368 -0.202 -0.236 -0.170 -0.365 -0.206 -0.249 -0.170 -0.365 -0.210 -0.168 -0.368 -0.206 -0.249 -0.169 -0.374 -0.208 -0.237 -0.170 -0.365 -0.206 -0.249 -0.169 -0.374 -0.206 -0.249


Dumping 'NbTe2.fillings' ... done
Dumping 'NbTe2.wfns' ... done
Dumping 'NbTe2.fluidState' ... done
Dumping 'NbTe2.eigenvals' ... done
End date and time: Sat Jul 18 08:19:36 2020  (Duration: 0-0:50:07.22)
Done!
