
*************** JDFTx 1.5.0  ***************

Start date and time: Sun Jul 12 14:49:25 2020
Executable jdftx_gpu with command-line: -i Neutral.in -o Neutral.out
Running on hosts (process indices):  amax (0-1)
Divided in process groups (process indices):  0 (0)  1 (1)
gpuInit: Found compatible cuda device 0 'Tesla K80'
gpuInit: Found compatible cuda device 1 'Tesla K80'
gpuInit: Selected device 0
Resource initialization completed at t[s]:     10.85
Run totals: 2 processes, 24 threads, 2 GPUs


Input parsed successfully to the following command list (including defaults):

basis kpoint-dependent
cache-projectors no
coords-type Lattice
core-overlap-check none
coulomb-interaction Slab 001
coulomb-truncation-embed 0 0 0.5
davidson-band-ratio 1.1
dump End State
dump-name NbTe2.$VAR
elec-cutoff 20 100
elec-eigen-algo Davidson
elec-ex-corr gga-PBE
elec-smearing Gauss 0.0073499
electronic-minimize  \
	dirUpdateScheme      FletcherReeves \
	linminMethod         DirUpdateRecommended \
	nIterations          500 \
	history              15 \
	knormThreshold       0 \
	energyDiffThreshold  1e-08 \
	nEnergyDiff          2 \
	alphaTstart          1 \
	alphaTmin            1e-10 \
	updateTestStepSize   yes \
	alphaTreduceFactor   0.1 \
	alphaTincreaseFactor 3 \
	nAlphaAdjustMax      3 \
	wolfeEnergy          0.0001 \
	wolfeGradient        0.9 \
	fdTest               no
exchange-regularization WignerSeitzTruncated
fluid LinearPCM 298.000000 1.013250
fluid-anion F- 1 MeanFieldLJ \
	epsBulk 1 \
	pMol 0 \
	epsInf 1 \
	Pvap 0 \
	sigmaBulk 0 \
	Rvdw 2.24877 \
	Res 0 \
	tauNuc 343133
fluid-cation Na+ 1 MeanFieldLJ \
	epsBulk 1 \
	pMol 0 \
	epsInf 1 \
	Pvap 0 \
	sigmaBulk 0 \
	Rvdw 2.19208 \
	Res 0 \
	tauNuc 343133
fluid-ex-corr lda-TF lda-PZ
fluid-gummel-loop 10 1.000000e-05
fluid-minimize  \
	dirUpdateScheme      PolakRibiere \
	linminMethod         DirUpdateRecommended \
	nIterations          400 \
	history              15 \
	knormThreshold       1e-11 \
	energyDiffThreshold  0 \
	nEnergyDiff          2 \
	alphaTstart          1 \
	alphaTmin            1e-10 \
	updateTestStepSize   yes \
	alphaTreduceFactor   0.1 \
	alphaTincreaseFactor 3 \
	nAlphaAdjustMax      6 \
	wolfeEnergy          0.0001 \
	wolfeGradient        0.9 \
	fdTest               no
fluid-solvent H2O 55.338 ScalarEOS \
	epsBulk 78.4 \
	pMol 0.92466 \
	epsInf 1.77 \
	Pvap 1.06736e-10 \
	sigmaBulk 4.62e-05 \
	Rvdw 2.61727 \
	Res 1.42 \
	tauNuc 343133 \
	poleEl 15 7 1
forces-output-coords Positions
initial-state NbTe2.$VAR
ion La   0.162825196049936   0.325650391099875   0.568977274875682 0
ion La   0.666666724000002   0.333333531000001   0.570488503642756 0
ion La   0.162825199049940   0.837175093950060   0.568977274875682 0
ion La   0.674349853900127   0.837175093950060   0.568977274875682 0
ion La   0.335011611651801   0.167505839325905   0.428711812981829 0
ion La   0.832493936674098   0.167505839325905   0.428711812981829 0
ion La   0.333333140999997   0.666666614000000   0.430171625833698 0
ion La   0.832493878674100   0.664988145348197   0.428711812981829 0
ion P  -0.000000000000000  -0.000000000000000   0.499436393997704 0
ion P   0.500258953419311   0.000518016838625   0.501009759390740 0
ion P  -0.000518015838628   0.499740952580688   0.501009759390740 0
ion P   0.500258954419315   0.499740952580688   0.501009759390740 0
ion I   0.332057531663326   0.166028507331664   0.667077973765090 0
ion I   0.833971544668339   0.166028507331664   0.667077973765090 0
ion I   0.833971478668334   0.667942457336670   0.667077973765090 0
ion I   0.167137702403715   0.334275625807431   0.334121031712716 0
ion I   0.666666589000002   0.333333371000002   0.333580271347671 0
ion I   0.167137662403712   0.832862204596288   0.334121031712716 0
ion I   0.665724280192568   0.832862204596288   0.334121031712716 0
ion-species GBRV/$ID_pbe.uspp
ion-width Ecut
ionic-minimize  \
	dirUpdateScheme      L-BFGS \
	linminMethod         DirUpdateRecommended \
	nIterations          0 \
	history              15 \
	knormThreshold       0.0001 \
	energyDiffThreshold  1e-06 \
	nEnergyDiff          2 \
	alphaTstart          1 \
	alphaTmin            1e-10 \
	updateTestStepSize   yes \
	alphaTreduceFactor   0.1 \
	alphaTincreaseFactor 3 \
	nAlphaAdjustMax      3 \
	wolfeEnergy          0.0001 \
	wolfeGradient        0.9 \
	fdTest               no
kpoint   0.000000000000   0.000000000000   0.000000000000  1.00000000000000
kpoint-folding 4 4 1 
latt-move-scale 1 1 1
latt-scale 1 1 1 
lattice Triclinic 16.2489 16.2489 42.5261 90 90 120
lattice-minimize  \
	dirUpdateScheme      L-BFGS \
	linminMethod         DirUpdateRecommended \
	nIterations          0 \
	history              15 \
	knormThreshold       0 \
	energyDiffThreshold  1e-06 \
	nEnergyDiff          2 \
	alphaTstart          1 \
	alphaTmin            1e-10 \
	updateTestStepSize   yes \
	alphaTreduceFactor   0.1 \
	alphaTincreaseFactor 3 \
	nAlphaAdjustMax      3 \
	wolfeEnergy          0.0001 \
	wolfeGradient        0.9 \
	fdTest               no
lcao-params -1 1e-06 0.0073499
pcm-variant CANDLE
spintype no-spin
subspace-rotation-factor 1 yes
symmetries automatic
symmetry-threshold 0.0001



---------- Setting up symmetries ----------

Found 24 point-group symmetries of the bravais lattice
Found 6 space-group symmetries with basis
Applied RMS atom displacement 2.84498e-06 bohrs to make symmetries exact.

---------- Initializing the Grid ----------
R = 
[    16.2489   -8.12446          0  ]
[          0     14.072          0  ]
[          0          0    42.5261  ]
unit cell volume = 9723.77
G =
[   0.386684   0.223252         -0  ]
[          0   0.446503          0  ]
[          0         -0   0.147749  ]
Minimum fftbox size, Smin = [  76  76  192  ]
Chosen fftbox size, S = [  80  80  192  ]

---------- Initializing tighter grid for wavefunction operations ----------
R = 
[    16.2489   -8.12446          0  ]
[          0     14.072          0  ]
[          0          0    42.5261  ]
unit cell volume = 9723.77
G =
[   0.386684   0.223252         -0  ]
[          0   0.446503          0  ]
[          0         -0   0.147749  ]
Minimum fftbox size, Smin = [  68  68  172  ]
Chosen fftbox size, S = [  70  70  180  ]

---------- Exchange Correlation functional ----------
Initalized PBE GGA exchange.
Initalized PBE GGA correlation.

---------- Setting up pseudopotentials ----------
Width of ionic core gaussian charges (only for fluid interactions / plotting) set to 0.397384

Reading pseudopotential file '/home/guoxy/vasp/jdftx-1.5.0/build/pseudopotentials/GBRV/la_pbe.uspp':
  Title: La.  Created by USPP 7.3.6 on 14-9-2013
  Reference state energy: -51.063618.  11 valence electrons in orbitals:
    |500>  occupation: 2  eigenvalue: -1.451142
    |510>  occupation: 6  eigenvalue: -0.843691
    |520>  occupation: 1  eigenvalue: -0.130012
    |600>  occupation: 1.5  eigenvalue: -0.146765
    |610>  occupation: 0.5  eigenvalue: -0.059369
    |430>  occupation: 0  eigenvalue: -0.180348
  lMax: 3  lLocal: -1  QijEcut: 5
  8 projectors sampled on a log grid with 665 points:
    l: 0  eig: -1.451139  rCut: 1.7
    l: 0  eig: -0.146766  rCut: 1.7
    l: 1  eig: -0.843687  rCut: 1.9
    l: 1  eig: -0.059370  rCut: 1.9
    l: 2  eig: -0.130014  rCut: 2
    l: 2  eig: 1.000000  rCut: 2
    l: 3  eig: -0.180352  rCut: 2
    l: 3  eig: -1.000000  rCut: 2
  Partial core density with radius 1.3
  Transforming core density to a uniform radial grid of dG=0.02 with 1707 points.
  Transforming local potential to a uniform radial grid of dG=0.02 with 1707 points.
  Transforming nonlocal projectors to a uniform radial grid of dG=0.02 with 432 points.
  Transforming density augmentations to a uniform radial grid of dG=0.02 with 1707 points.
  Transforming atomic orbitals to a uniform radial grid of dG=0.02 with 432 points.
  Core radius for overlap checks: 2.00 bohrs.

Reading pseudopotential file '/home/guoxy/vasp/jdftx-1.5.0/build/pseudopotentials/GBRV/p_pbe.uspp':
  Title: P.  Created by USPP 7.3.6 on 11-6-15
  Reference state energy: -7.561951.  5 valence electrons in orbitals:
    |300>  occupation: 2  eigenvalue: -0.513368
    |310>  occupation: 3  eigenvalue: -0.202371
  lMax: 2  lLocal: 3  QijEcut: 5
  6 projectors sampled on a log grid with 631 points:
    l: 0  eig: -0.513363  rCut: 1.5
    l: 0  eig: 0.500000  rCut: 1.5
    l: 1  eig: -0.202372  rCut: 1.5
    l: 1  eig: 1.000000  rCut: 1.5
    l: 2  eig: -0.500000  rCut: 1.5
    l: 2  eig: 1.500000  rCut: 1.5
  Partial core density with radius 1.35
  Transforming core density to a uniform radial grid of dG=0.02 with 1707 points.
  Transforming local potential to a uniform radial grid of dG=0.02 with 1707 points.
  Transforming nonlocal projectors to a uniform radial grid of dG=0.02 with 432 points.
  Transforming density augmentations to a uniform radial grid of dG=0.02 with 1707 points.
  Transforming atomic orbitals to a uniform radial grid of dG=0.02 with 432 points.
  Core radius for overlap checks: 1.50 bohrs.

Reading pseudopotential file '/home/guoxy/vasp/jdftx-1.5.0/build/pseudopotentials/GBRV/i_pbe.uspp':
  Title: I.  Created by USPP 7.3.6 on 14-9-2013
  Reference state energy: -32.770235.  7 valence electrons in orbitals:
    |500>  occupation: 2  eigenvalue: -0.639712
    |510>  occupation: 5  eigenvalue: -0.260406
  lMax: 2  lLocal: 3  QijEcut: 5
  6 projectors sampled on a log grid with 725 points:
    l: 0  eig: -0.639710  rCut: 1.9
    l: 0  eig: 0.000000  rCut: 1.9
    l: 1  eig: -0.260404  rCut: 2
    l: 1  eig: 0.000000  rCut: 2
    l: 2  eig: -0.500000  rCut: 2.45
    l: 2  eig: 0.500000  rCut: 2.45
  Partial core density with radius 1.3
  Transforming core density to a uniform radial grid of dG=0.02 with 1707 points.
  Transforming local potential to a uniform radial grid of dG=0.02 with 1707 points.
  Transforming nonlocal projectors to a uniform radial grid of dG=0.02 with 432 points.
  Transforming density augmentations to a uniform radial grid of dG=0.02 with 1707 points.
  Transforming atomic orbitals to a uniform radial grid of dG=0.02 with 432 points.
  Core radius for overlap checks: 2.45 bohrs.

Initialized 3 species with 19 total atoms.

Folded 1 k-points by 4x4x1 to 16 k-points.

---------- Setting up k-points, bands, fillings ----------
Adding inversion symmetry to k-mesh for non-inversion-symmetric unit cell.
Reduced to 4 k-points under symmetry. 
Computing the number of bands and number of electrons
Calculating initial fillings.
nElectrons: 157.000000   nBands: 204   nStates: 4

----- Setting up reduced wavefunction bases (one per k-point) -----
average nbasis = 41542.562 , ideal nbasis = 41540.690

---------- Setting up coulomb interaction ----------
Fluid mode embedding: using embedded box, but periodic Coulomb kernel.
(Fluid response is responsible for (approximate) separation between periodic images.)
Setting up double-sized grid for truncated Coulomb potentials:
R = 
[    16.2489   -8.12446          0  ]
[          0     14.072          0  ]
[          0          0    85.0522  ]
unit cell volume = 19447.5
G =
[   0.386684   0.223252         -0  ]
[          0   0.446503          0  ]
[          0         -0  0.0738745  ]
Chosen fftbox size, S = [  80  80  384  ]
Integer grid location selected as the embedding center:
   Grid: [  0  0  96  ]
   Lattice: [  0  0  0.5  ]
   Cartesian: [  0  0  21.263  ]
Constructing Wigner-Seitz cell: 8 faces (6 quadrilaterals, 2 hexagons)
Range-separation parameter for embedded mesh potentials due to point charges: 0.593728 bohrs.

Initializing van der Waals corrections
	NOTE: vdW corrections apply only for interactions with fluid.
	La:  C6:  815.23 Eh-a0^6  R0: 3.326 a0 (WARNING: beyond Grimme's data set)
	 P:  C6:  135.99 Eh-a0^6  R0: 3.222 a0
	 I:  C6:  546.38 Eh-a0^6  R0: 3.575 a0

---------- Setting up ewald sum ----------
Optimum gaussian width for ewald sums = 6.567590 bohr.
Real space sum over 845 unit cells with max indices [  6  6  2  ]
Reciprocal space sum over 5203 terms with max indices [  5  5  21  ]

---------- Allocating electronic variables ----------
Initializing wave functions:  linear combination of atomic orbitals
La pseudo-atom occupations:   s ( 2 0 )  p ( 6 0 )  d ( 0 )  f ( 3 )
P pseudo-atom occupations:   s ( 2 )  p ( 3 )
I pseudo-atom occupations:   s ( 2 )  p ( 5 )
	FillingsUpdate:  mu: -1.552401089  nElectrons: 157.000000
LCAOMinimize: Iter:   0  F: -343.1411723535529745  |grad|_K:  2.609e-02  alpha:  1.000e+00
	FillingsUpdate:  mu: -0.888272030  nElectrons: 157.000000
LCAOMinimize: Iter:   1  F: -354.2142544912688891  |grad|_K:  1.741e-02  alpha:  1.157e-01  linmin: -1.780e-01  cgtest:  1.011e+00  t[s]:     32.53
LCAOMinimize: Encountered beta<0, resetting CG.
	FillingsUpdate:  mu: -0.264006124  nElectrons: 157.000000
LCAOMinimize: Iter:   2  F: -362.2559651517549355  |grad|_K:  6.397e-03  alpha:  2.810e-01  linmin: -1.383e-01  cgtest:  8.868e-01  t[s]:     40.13
LCAOMinimize: Encountered beta<0, resetting CG.
	FillingsUpdate:  mu: -0.243573688  nElectrons: 157.000000
LCAOMinimize: Iter:   3  F: -363.1540258662932956  |grad|_K:  4.906e-03  alpha:  2.522e-01  linmin:  1.421e-02  cgtest:  4.540e-02  t[s]:     48.49
	FillingsUpdate:  mu: -0.068541180  nElectrons: 157.000000
LCAOMinimize: Iter:   4  F: -363.5617867675206298  |grad|_K:  1.459e-03  alpha:  2.214e-01  linmin:  1.416e-02  cgtest:  7.450e-02  t[s]:     57.87
	FillingsUpdate:  mu: -0.049791210  nElectrons: 157.000000
LCAOMinimize: Iter:   5  F: -363.6582266750479562  |grad|_K:  1.045e-03  alpha:  5.630e-01  linmin:  5.477e-03  cgtest: -1.293e-01  t[s]:     67.19
	FillingsUpdate:  mu: -0.049276681  nElectrons: 157.000000
LCAOMinimize: Iter:   6  F: -363.6600659941062759  |grad|_K:  9.768e-04  alpha:  1.111e-02  linmin: -6.512e-02  cgtest:  9.969e-01  t[s]:     77.38
LCAOMinimize: Encountered beta<0, resetting CG.
LCAOMinimize: 	Predicted alpha/alphaT>3.000000, increasing alphaT to 3.331932e-02.
LCAOMinimize: 	Predicted alpha/alphaT>3.000000, increasing alphaT to 9.995796e-02.
	FillingsUpdate:  mu: -0.054560222  nElectrons: 157.000000
LCAOMinimize: Iter:   7  F: -363.6711777277008650  |grad|_K:  4.441e-04  alpha:  1.413e-01  linmin:  2.573e-02  cgtest: -1.038e-01  t[s]:     93.88
	FillingsUpdate:  mu: -0.068676162  nElectrons: 157.000000
LCAOMinimize: Iter:   8  F: -363.6742573899904301  |grad|_K:  1.847e-04  alpha:  1.983e-01  linmin: -1.461e-03  cgtest:  2.108e-01  t[s]:    102.90
	FillingsUpdate:  mu: -0.065750181  nElectrons: 157.000000
LCAOMinimize: Iter:   9  F: -363.6751641090494331  |grad|_K:  1.965e-04  alpha:  3.226e-01  linmin:  4.000e-03  cgtest: -7.980e-02  t[s]:    112.10
	FillingsUpdate:  mu: -0.062235956  nElectrons: 157.000000
LCAOMinimize: Iter:  10  F: -363.6756388805219444  |grad|_K:  9.185e-05  alpha:  1.444e-01  linmin: -5.972e-03  cgtest:  4.793e-01  t[s]:    121.45
LCAOMinimize: Encountered beta<0, resetting CG.
	FillingsUpdate:  mu: -0.064093607  nElectrons: 157.000000
LCAOMinimize: Iter:  11  F: -363.6757757292853057  |grad|_K:  4.219e-05  alpha:  1.932e-01  linmin:  1.206e-03  cgtest: -2.242e-03  t[s]:    130.47
	FillingsUpdate:  mu: -0.064885687  nElectrons: 157.000000
LCAOMinimize: Iter:  12  F: -363.6757975153290658  |grad|_K:  2.230e-05  alpha:  1.461e-01  linmin: -2.951e-05  cgtest: -1.217e-03  t[s]:    139.37
LCAOMinimize: 	Predicted alpha/alphaT>3.000000, increasing alphaT to 4.381546e-01.
	FillingsUpdate:  mu: -0.064981553  nElectrons: 157.000000
LCAOMinimize: Iter:  13  F: -363.6758179255414802  |grad|_K:  1.127e-05  alpha:  4.889e-01  linmin:  1.457e-03  cgtest: -2.722e-02  t[s]:    151.85
	FillingsUpdate:  mu: -0.064666323  nElectrons: 157.000000
LCAOMinimize: Iter:  14  F: -363.6758210839146841  |grad|_K:  3.093e-06  alpha:  2.971e-01  linmin: -2.666e-04  cgtest:  5.116e-02  t[s]:    161.27
	FillingsUpdate:  mu: -0.064709228  nElectrons: 157.000000
LCAOMinimize: Iter:  15  F: -363.6758213653793064  |grad|_K:  1.471e-06  alpha:  3.499e-01  linmin:  1.178e-04  cgtest: -1.815e-03  t[s]:    169.93
	FillingsUpdate:  mu: -0.064713838  nElectrons: 157.000000
LCAOMinimize: Iter:  16  F: -363.6758213986962005  |grad|_K:  1.165e-06  alpha:  1.832e-01  linmin:  1.960e-05  cgtest:  1.538e-04  t[s]:    178.54
LCAOMinimize: Converged (|Delta F|<1.000000e-06 for 2 iters).
----- createFluidSolver() ----- (Fluid-side solver setup)
   Initializing fluid molecule 'H2O'
     Initializing site 'O'
       Electron density: proportional to exp(-r/0.36935)*erfc((r-0.51523)/0.36823) with norm 6.826
       Charge density: gaussian nuclear width 0.478731 with net site charge 0.826
       Polarizability: cuspless exponential with width 0.32 and norm 3.73
       Hard sphere radius: 2.57003 bohrs
       Positions in reference frame:
         [ +0.000000 +0.000000 +0.000000 ]
     Initializing site 'H'
       Electron density: proportional to exp(-r/0.34641)*erfc((r-0)/0.390882) with norm 0.587
       Charge density: gaussian nuclear width 0.377945 with net site charge -0.413
       Polarizability: cuspless exponential with width 0.39 and norm 3.3
       Positions in reference frame:
         [ +0.000000 -1.441945 +1.122523 ]
         [ +0.000000 +1.441945 +1.122523 ]
     Net charge: 0   dipole magnitude: 0.927204
     Initializing spherical shell mfKernel with radius 2.61727 Bohr
     deltaS corrections:
       site 'O': -7.54299
       site 'H': -6.83917
   Initializing fluid molecule 'Na+'
     Initializing site 'Na'
       Electron density: proportional to exp(-r/0.19682)*erfc((r-0.71491)/0.41314) with norm 8.1383
       Charge density: gaussian nuclear width 0.365347 with net site charge -1
       Hard sphere radius: 1.86327 bohrs
       Positions in reference frame:
         [ +0.000000 +0.000000 +0.000000 ]
     Net charge: -1   dipole magnitude: 0
     Initializing gaussian mfKernel with width: 1.55004 Bohr
     deltaS corrections:
       site 'Na': -22.3555
   Initializing fluid molecule 'F-'
     Initializing site 'F'
       Electron density: proportional to exp(-r/0.38886)*erfc((r-0)/0.438782) with norm 8
       Charge density: gaussian nuclear width 0.374796 with net site charge 1
       Hard sphere radius: 2.39995 bohrs
       Positions in reference frame:
         [ +0.000000 +0.000000 +0.000000 ]
     Net charge: 1   dipole magnitude: 0
     Initializing gaussian mfKernel with width: 1.59012 Bohr
     deltaS corrections:
       site 'F': -9.04335

Correction to mu due to finite nuclear width = -0.00801004
   Cavity determined by nc: 0.00142 and sigma: 0.707107
   Nonlocal vdW cavity from gaussian model electron density with norm = 8 and sigma = 0.993594 bohr
   Charge asymmetry in cavity with sensitivity pCavity = 36.5 e-bohr/Eh
   Electrostatic cavity expanded by eta = 1.46 bohrs
   Weighted density cavitation model constrained by Nbulk: 0.0049383 bohr^-3, Pvap: 3.14029 kPa, Rvdw: 2.61727 bohr and sigmaBulk: 4.62e-05 Eh/bohr^2 at T: 298 K.
   Weighted density dispersion model using vdW pair potentials with single solvent site with sqrtC6eff: 0.77 SI.


---- Citations for features of the code used in this run ----

   Software package:
      R. Sundararaman, K. Letchworth-Weaver, K.A. Schwarz, D. Gunceler, Y. Ozhabes and T.A. Arias, 'JDFTx: software for joint density-functional theory', SoftwareX 6, 278 (2017)

   gga-PBE exchange-correlation functional:
      J.P. Perdew, K. Burke and M. Ernzerhof, Phys. Rev. Lett. 77, 3865 (1996)

   Pseudopotentials:
      KF Garrity, JW Bennett, KM Rabe and D Vanderbilt, Comput. Mater. Sci. 81, 446 (2014)

   Truncated Coulomb potentials:
      R. Sundararaman and T.A. Arias, Phys. Rev. B 87, 165122 (2013)

   Van der Waals correction pair-potentials:
      S. Grimme, J. Comput. Chem. 27, 1787 (2006)

   Charge-asymmetric nonlocally-determined local-electric (CANDLE) solvation model:
      R. Sundararaman and W.A. Goddard III, J. Chem. Phys. 142, 064107 (2015)

   Total energy minimization with Auxiliary Hamiltonian:
      C. Freysoldt, S. Boeck, and J. Neugebauer, Phys. Rev. B 79, 241103(R) (2009)

This list may not be complete. Please suggest additional citations or
report any other bugs at https://github.com/shankar1729/jdftx/issues

Initialization completed successfully at t[s]:    180.68

Fluid solver invoked on fresh (partially random / LCAO) wavefunctions
Running a vacuum solve first:

-------- Initial electronic minimization -----------
	FillingsUpdate:  mu: -0.064713838  nElectrons: 157.000000
ElecMinimize: Iter:   0  F: -363.675821398697224  |grad|_K:  6.967e-05  alpha:  1.000e+00
	FillingsUpdate:  mu: -0.029852492  nElectrons: 157.000000
	SubspaceRotationAdjust: set factor to 1
ElecMinimize: Iter:   1  F: -363.825439370066420  |grad|_K:  4.019e-05  alpha:  9.077e-01  linmin: -7.724e-07  t[s]:    192.11
	FillingsUpdate:  mu: -0.064727504  nElectrons: 157.000000
	SubspaceRotationAdjust: set factor to 0.75
ElecMinimize: Iter:   2  F: -363.859605500202747  |grad|_K:  2.668e-05  alpha:  6.301e-01  linmin: -8.117e-06  t[s]:    198.94
	FillingsUpdate:  mu: -0.039279259  nElectrons: 157.000000
	SubspaceRotationAdjust: set factor to 0.458
ElecMinimize: Iter:   3  F: -363.869577633002677  |grad|_K:  1.581e-05  alpha:  3.993e-01  linmin: -2.550e-05  t[s]:    205.77
	FillingsUpdate:  mu: -0.042434259  nElectrons: 157.000000
	SubspaceRotationAdjust: set factor to 0.439
ElecMinimize: Iter:   4  F: -363.875664793138696  |grad|_K:  1.068e-05  alpha:  7.194e-01  linmin:  3.113e-05  t[s]:    212.51
	FillingsUpdate:  mu: -0.047369221  nElectrons: 157.000000
	SubspaceRotationAdjust: set factor to 0.339
ElecMinimize: Iter:   5  F: -363.877239380819731  |grad|_K:  7.515e-06  alpha:  4.107e-01  linmin: -4.858e-06  t[s]:    219.40
	FillingsUpdate:  mu: -0.050536059  nElectrons: 157.000000
	SubspaceRotationAdjust: set factor to 0.288
ElecMinimize: Iter:   6  F: -363.878086338779099  |grad|_K:  4.254e-06  alpha:  4.399e-01  linmin: -1.611e-06  t[s]:    226.28
	FillingsUpdate:  mu: -0.048127819  nElectrons: 157.000000
	SubspaceRotationAdjust: set factor to 0.397
ElecMinimize: Iter:   7  F: -363.878536149674574  |grad|_K:  2.771e-06  alpha:  7.323e-01  linmin:  7.693e-06  t[s]:    233.14
	FillingsUpdate:  mu: -0.047007866  nElectrons: 157.000000
	SubspaceRotationAdjust: set factor to 0.381
ElecMinimize: Iter:   8  F: -363.878702439095548  |grad|_K:  2.167e-06  alpha:  6.390e-01  linmin:  4.562e-06  t[s]:    240.01
	FillingsUpdate:  mu: -0.047554529  nElectrons: 157.000000
	SubspaceRotationAdjust: set factor to 0.307
ElecMinimize: Iter:   9  F: -363.878788737831371  |grad|_K:  1.601e-06  alpha:  5.414e-01  linmin:  1.950e-06  t[s]:    246.84
	FillingsUpdate:  mu: -0.047987353  nElectrons: 157.000000
	SubspaceRotationAdjust: set factor to 0.287
ElecMinimize: Iter:  10  F: -363.878837053301027  |grad|_K:  9.947e-07  alpha:  5.556e-01  linmin:  3.866e-06  t[s]:    253.70
	FillingsUpdate:  mu: -0.047983760  nElectrons: 157.000000
	SubspaceRotationAdjust: set factor to 0.331
ElecMinimize: Iter:  11  F: -363.878860263846263  |grad|_K:  7.140e-07  alpha:  6.940e-01  linmin:  2.315e-06  t[s]:    260.61
	FillingsUpdate:  mu: -0.047828902  nElectrons: 157.000000
	SubspaceRotationAdjust: set factor to 0.308
ElecMinimize: Iter:  12  F: -363.878872274429341  |grad|_K:  5.120e-07  alpha:  6.961e-01  linmin:  1.131e-06  t[s]:    267.47
	FillingsUpdate:  mu: -0.047710560  nElectrons: 157.000000
	SubspaceRotationAdjust: set factor to 0.263
ElecMinimize: Iter:  13  F: -363.878877627235056  |grad|_K:  3.999e-07  alpha:  6.019e-01  linmin:  3.434e-07  t[s]:    274.34
	FillingsUpdate:  mu: -0.047780368  nElectrons: 157.000000
	SubspaceRotationAdjust: set factor to 0.289
ElecMinimize: Iter:  14  F: -363.878881770015028  |grad|_K:  3.161e-07  alpha:  7.635e-01  linmin:  6.246e-07  t[s]:    281.17
	FillingsUpdate:  mu: -0.047887248  nElectrons: 157.000000
	SubspaceRotationAdjust: set factor to 0.319
ElecMinimize: Iter:  15  F: -363.878884389510063  |grad|_K:  2.635e-07  alpha:  7.732e-01  linmin:  4.186e-07  t[s]:    287.98
	FillingsUpdate:  mu: -0.047902160  nElectrons: 157.000000
	SubspaceRotationAdjust: set factor to 0.302
ElecMinimize: Iter:  16  F: -363.878886336857192  |grad|_K:  2.556e-07  alpha:  8.271e-01  linmin:  3.603e-07  t[s]:    294.85
	FillingsUpdate:  mu: -0.047868040  nElectrons: 157.000000
	SubspaceRotationAdjust: set factor to 0.292
ElecMinimize: Iter:  17  F: -363.878887780004447  |grad|_K:  1.832e-07  alpha:  6.506e-01  linmin:  1.812e-07  t[s]:    301.73
	FillingsUpdate:  mu: -0.047804540  nElectrons: 157.000000
	SubspaceRotationAdjust: set factor to 0.33
ElecMinimize: Iter:  18  F: -363.878888731905988  |grad|_K:  1.594e-07  alpha:  8.365e-01  linmin:  5.528e-07  t[s]:    308.58
	FillingsUpdate:  mu: -0.047814894  nElectrons: 157.000000
	SubspaceRotationAdjust: set factor to 0.347
ElecMinimize: Iter:  19  F: -363.878889348958012  |grad|_K:  1.298e-07  alpha:  7.162e-01  linmin:  2.155e-07  t[s]:    315.47
	FillingsUpdate:  mu: -0.047869064  nElectrons: 157.000000
	SubspaceRotationAdjust: set factor to 0.323
ElecMinimize: Iter:  20  F: -363.878889728702347  |grad|_K:  1.076e-07  alpha:  6.643e-01  linmin:  1.066e-07  t[s]:    322.32
	FillingsUpdate:  mu: -0.047862933  nElectrons: 157.000000
	SubspaceRotationAdjust: set factor to 0.338
ElecMinimize: Iter:  21  F: -363.878890023643919  |grad|_K:  8.881e-08  alpha:  7.502e-01  linmin:  1.216e-07  t[s]:    329.17
	FillingsUpdate:  mu: -0.047830517  nElectrons: 157.000000
	SubspaceRotationAdjust: set factor to 0.385
ElecMinimize: Iter:  22  F: -363.878890197845294  |grad|_K:  6.695e-08  alpha:  6.506e-01  linmin:  3.483e-08  t[s]:    336.06
	FillingsUpdate:  mu: -0.047814489  nElectrons: 157.000000
	SubspaceRotationAdjust: set factor to 0.422
ElecMinimize: Iter:  23  F: -363.878890321536403  |grad|_K:  5.559e-08  alpha:  8.126e-01  linmin:  3.011e-08  t[s]:    342.90
	FillingsUpdate:  mu: -0.047827650  nElectrons: 157.000000
	SubspaceRotationAdjust: set factor to 0.378
ElecMinimize: Iter:  24  F: -363.878890381462156  |grad|_K:  4.705e-08  alpha:  5.709e-01  linmin: -5.032e-09  t[s]:    349.76
	FillingsUpdate:  mu: -0.047848746  nElectrons: 157.000000
	SubspaceRotationAdjust: set factor to 0.329
ElecMinimize: Iter:  25  F: -363.878890421813139  |grad|_K:  3.477e-08  alpha:  5.365e-01  linmin:  1.013e-08  t[s]:    356.63
	FillingsUpdate:  mu: -0.047842266  nElectrons: 157.000000
	SubspaceRotationAdjust: set factor to 0.395
ElecMinimize: Iter:  26  F: -363.878890450275094  |grad|_K:  2.459e-08  alpha:  6.931e-01  linmin: -1.688e-08  t[s]:    363.47
	FillingsUpdate:  mu: -0.047832636  nElectrons: 157.000000
	SubspaceRotationAdjust: set factor to 0.434
ElecMinimize: Iter:  27  F: -363.878890464585709  |grad|_K:  1.916e-08  alpha:  6.967e-01  linmin:  3.330e-08  t[s]:    370.33
	FillingsUpdate:  mu: -0.047835724  nElectrons: 157.000000
	SubspaceRotationAdjust: set factor to 0.439
ElecMinimize: Iter:  28  F: -363.878890472146963  |grad|_K:  1.562e-08  alpha:  6.062e-01  linmin: -3.284e-09  t[s]:    377.22
	FillingsUpdate:  mu: -0.047838813  nElectrons: 157.000000
	SubspaceRotationAdjust: set factor to 0.372
ElecMinimize: Iter:  29  F: -363.878890476178753  |grad|_K:  1.190e-08  alpha:  4.858e-01  linmin:  4.653e-09  t[s]:    384.01
ElecMinimize: Converged (|Delta F|<1.000000e-08 for 2 iters).
Setting wave functions to eigenvectors of Hamiltonian
Vacuum energy after initial minimize, F = -363.878890476178753

	Linear fluid (dielectric constant: 78.4, screening length: 5.74355 Bohr) occupying 0.711104 of unit cell:	Completed after 25 iterations at t[s]:    387.29

-------- Electronic minimization -----------
	Linear fluid (dielectric constant: 78.4, screening length: 5.74355 Bohr) occupying 0.711104 of unit cell:	Completed after 0 iterations at t[s]:    389.22
	FillingsUpdate:  mu: -0.131795973  nElectrons: 157.000000
ElecMinimize: Iter:   0  F: -363.878706848800675  |grad|_K:  1.141e-05  alpha:  1.000e+00
	Linear fluid (dielectric constant: 78.4, screening length: 5.74355 Bohr) occupying 0.711526 of unit cell:	Completed after 20 iterations at t[s]:    395.86
	Linear fluid (dielectric constant: 78.4, screening length: 5.74355 Bohr) occupying 0.711456 of unit cell:	Completed after 14 iterations at t[s]:    399.17
	FillingsUpdate:  mu: -0.129476452  nElectrons: 157.000000
	SubspaceRotationAdjust: set factor to 0.265
ElecMinimize: Iter:   1  F: -363.882124954734877  |grad|_K:  1.038e-05  alpha:  7.952e-01  linmin: -5.917e-05  t[s]:    402.05
	Linear fluid (dielectric constant: 78.4, screening length: 5.74355 Bohr) occupying 0.711726 of unit cell:	Completed after 15 iterations at t[s]:    405.31
	Linear fluid (dielectric constant: 78.4, screening length: 5.74355 Bohr) occupying 0.711752 of unit cell:	Completed after 10 iterations at t[s]:    408.41
	FillingsUpdate:  mu: -0.134135370  nElectrons: 157.000000
	SubspaceRotationAdjust: set factor to 0.247
ElecMinimize: Iter:   2  F: -363.885571619016559  |grad|_K:  5.826e-06  alpha:  9.068e-01  linmin: -6.159e-05  t[s]:    411.29
	Linear fluid (dielectric constant: 78.4, screening length: 5.74355 Bohr) occupying 0.711773 of unit cell:	Completed after 16 iterations at t[s]:    414.62
	Linear fluid (dielectric constant: 78.4, screening length: 5.74355 Bohr) occupying 0.711773 of unit cell:	Completed after 9 iterations at t[s]:    417.63
	FillingsUpdate:  mu: -0.127883417  nElectrons: 157.000000
	SubspaceRotationAdjust: set factor to 0.32
ElecMinimize: Iter:   3  F: -363.886759950765850  |grad|_K:  3.908e-06  alpha:  9.746e-01  linmin: -3.098e-05  t[s]:    420.50
	Linear fluid (dielectric constant: 78.4, screening length: 5.74355 Bohr) occupying 0.711671 of unit cell:	Completed after 14 iterations at t[s]:    423.73
	Linear fluid (dielectric constant: 78.4, screening length: 5.74355 Bohr) occupying 0.711700 of unit cell:	Completed after 10 iterations at t[s]:    426.82
	FillingsUpdate:  mu: -0.126014160  nElectrons: 157.000000
	SubspaceRotationAdjust: set factor to 0.417
ElecMinimize: Iter:   4  F: -363.887140093598418  |grad|_K:  2.417e-06  alpha:  7.093e-01  linmin: -5.712e-06  t[s]:    429.63
	Linear fluid (dielectric constant: 78.4, screening length: 5.74355 Bohr) occupying 0.711605 of unit cell:	Completed after 10 iterations at t[s]:    432.67
	Linear fluid (dielectric constant: 78.4, screening length: 5.74355 Bohr) occupying 0.711567 of unit cell:	Completed after 7 iterations at t[s]:    435.60
	FillingsUpdate:  mu: -0.127188599  nElectrons: 157.000000
	SubspaceRotationAdjust: set factor to 0.518
ElecMinimize: Iter:   5  F: -363.887336533823714  |grad|_K:  1.661e-06  alpha:  9.800e-01  linmin: -7.857e-05  t[s]:    438.46
	Linear fluid (dielectric constant: 78.4, screening length: 5.74355 Bohr) occupying 0.711475 of unit cell:	Completed after 10 iterations at t[s]:    441.45
	Linear fluid (dielectric constant: 78.4, screening length: 5.74355 Bohr) occupying 0.711506 of unit cell:	Completed after 6 iterations at t[s]:    444.32
	FillingsUpdate:  mu: -0.127272719  nElectrons: 157.000000
	SubspaceRotationAdjust: set factor to 0.608
ElecMinimize: Iter:   6  F: -363.887399573802838  |grad|_K:  1.083e-06  alpha:  6.620e-01  linmin:  2.774e-07  t[s]:    447.18
	Linear fluid (dielectric constant: 78.4, screening length: 5.74355 Bohr) occupying 0.711480 of unit cell:	Completed after 10 iterations at t[s]:    450.18
	Linear fluid (dielectric constant: 78.4, screening length: 5.74355 Bohr) occupying 0.711482 of unit cell:	Completed after 2 iterations at t[s]:    452.84
	FillingsUpdate:  mu: -0.126618317  nElectrons: 157.000000
	SubspaceRotationAdjust: set factor to 0.597
ElecMinimize: Iter:   7  F: -363.887423334295136  |grad|_K:  6.271e-07  alpha:  5.979e-01  linmin: -1.373e-06  t[s]:    455.72
	Linear fluid (dielectric constant: 78.4, screening length: 5.74355 Bohr) occupying 0.711465 of unit cell:	Completed after 7 iterations at t[s]:    458.54
	Linear fluid (dielectric constant: 78.4, screening length: 5.74355 Bohr) occupying 0.711467 of unit cell:	Completed after 0 iterations at t[s]:    461.04
	FillingsUpdate:  mu: -0.126897796  nElectrons: 157.000000
	SubspaceRotationAdjust: set factor to 0.416
ElecMinimize: Iter:   8  F: -363.887430813252820  |grad|_K:  3.309e-07  alpha:  5.584e-01  linmin:  8.612e-06  t[s]:    463.92
	Linear fluid (dielectric constant: 78.4, screening length: 5.74355 Bohr) occupying 0.711463 of unit cell:	Completed after 5 iterations at t[s]:    466.68
	Linear fluid (dielectric constant: 78.4, screening length: 5.74355 Bohr) occupying 0.711464 of unit cell:	Completed after 2 iterations at t[s]:    469.35
	FillingsUpdate:  mu: -0.126838287  nElectrons: 157.000000
	SubspaceRotationAdjust: set factor to 0.261
ElecMinimize: Iter:   9  F: -363.887432188259936  |grad|_K:  1.735e-07  alpha:  3.902e-01  linmin: -4.040e-06  t[s]:    472.23
	Linear fluid (dielectric constant: 78.4, screening length: 5.74355 Bohr) occupying 0.711464 of unit cell:	Completed after 2 iterations at t[s]:    474.81
	Linear fluid (dielectric constant: 78.4, screening length: 5.74355 Bohr) occupying 0.711464 of unit cell:	Completed after 1 iterations at t[s]:    477.39
	FillingsUpdate:  mu: -0.126829628  nElectrons: 157.000000
	SubspaceRotationAdjust: set factor to 0.378
ElecMinimize: Iter:  10  F: -363.887432911807934  |grad|_K:  9.190e-08  alpha:  6.905e-01  linmin: -3.367e-05  t[s]:    480.28
	Linear fluid (dielectric constant: 78.4, screening length: 5.74355 Bohr) occupying 0.711465 of unit cell:	Completed after 2 iterations at t[s]:    482.86
	Linear fluid (dielectric constant: 78.4, screening length: 5.74355 Bohr) occupying 0.711465 of unit cell:	Completed after 0 iterations at t[s]:    485.40
	FillingsUpdate:  mu: -0.126821200  nElectrons: 157.000000
	SubspaceRotationAdjust: set factor to 0.332
ElecMinimize: Iter:  11  F: -363.887433058502211  |grad|_K:  6.556e-08  alpha:  5.136e-01  linmin: -1.894e-05  t[s]:    488.28
	Linear fluid (dielectric constant: 78.4, screening length: 5.74355 Bohr) occupying 0.711466 of unit cell:	Completed after 1 iterations at t[s]:    490.81
	Linear fluid (dielectric constant: 78.4, screening length: 5.74355 Bohr) occupying 0.711466 of unit cell:	Completed after 0 iterations at t[s]:    493.32
	FillingsUpdate:  mu: -0.126821577  nElectrons: 157.000000
	SubspaceRotationAdjust: set factor to 0.439
ElecMinimize: Iter:  12  F: -363.887433134136415  |grad|_K:  3.979e-08  alpha:  5.091e-01  linmin: -6.661e-05  t[s]:    496.21
	Linear fluid (dielectric constant: 78.4, screening length: 5.74355 Bohr) occupying 0.711467 of unit cell:	Completed after 0 iterations at t[s]:    498.70
	Linear fluid (dielectric constant: 78.4, screening length: 5.74355 Bohr) occupying 0.711467 of unit cell:	Completed after 0 iterations at t[s]:    501.23
	FillingsUpdate:  mu: -0.126820851  nElectrons: 157.000000
	SubspaceRotationAdjust: set factor to 0.492
ElecMinimize: Iter:  13  F: -363.887433170812415  |grad|_K:  2.613e-08  alpha:  5.767e-01  linmin: -5.702e-05  t[s]:    520.22
	Linear fluid (dielectric constant: 78.4, screening length: 5.74355 Bohr) occupying 0.711467 of unit cell:	Completed after 1 iterations at t[s]:    531.53
	Linear fluid (dielectric constant: 78.4, screening length: 5.74355 Bohr) occupying 0.711467 of unit cell:	Completed after 0 iterations at t[s]:    534.94
ElecMinimize: 	Step increased F by 1.633703e-08, reducing alpha to 1.669102e-02.
	Linear fluid (dielectric constant: 78.4, screening length: 5.74355 Bohr) occupying 0.711467 of unit cell:	Completed after 0 iterations at t[s]:    542.93
ElecMinimize: 	Step increased F by 1.716359e-08, reducing alpha to 1.669102e-03.
	Linear fluid (dielectric constant: 78.4, screening length: 5.74355 Bohr) occupying 0.711467 of unit cell:	Completed after 0 iterations at t[s]:    550.69
ElecMinimize: 	Step increased F by 1.733821e-08, reducing alpha to 1.669102e-04.
ElecMinimize: 	Step failed to reduce F after 3 attempts. Quitting step.
ElecMinimize: 	Undoing step.
	Linear fluid (dielectric constant: 78.4, screening length: 5.74355 Bohr) occupying 0.711467 of unit cell:	Completed after 0 iterations at t[s]:    558.36
ElecMinimize: 	Step failed: resetting search direction.
	FillingsUpdate:  mu: -0.126804450  nElectrons: 157.000000
	SubspaceRotationAdjust: set factor to 0.369
ElecMinimize: Iter:  14  F: -363.887433153476934  |grad|_K:  5.202e-08  alpha:  1.669e-04
	Linear fluid (dielectric constant: 78.4, screening length: 5.74355 Bohr) occupying 0.711467 of unit cell:	Completed after 3 iterations at t[s]:    566.88
	Linear fluid (dielectric constant: 78.4, screening length: 5.74355 Bohr) occupying 0.711467 of unit cell:	Completed after 0 iterations at t[s]:    571.36
	FillingsUpdate:  mu: -0.126808347  nElectrons: 157.000000
	SubspaceRotationAdjust: set factor to 0.183
ElecMinimize: Iter:  15  F: -363.887433187775002  |grad|_K:  4.224e-08  alpha:  2.652e-01  linmin:  6.235e-04  t[s]:    575.61
	Linear fluid (dielectric constant: 78.4, screening length: 5.74355 Bohr) occupying 0.711467 of unit cell:	Completed after 0 iterations at t[s]:    579.64
	Linear fluid (dielectric constant: 78.4, screening length: 5.74355 Bohr) occupying 0.711466 of unit cell:	Completed after 0 iterations at t[s]:    583.26
	FillingsUpdate:  mu: -0.126808375  nElectrons: 157.000000
	SubspaceRotationAdjust: set factor to 0.217
ElecMinimize: Iter:  16  F: -363.887433200774069  |grad|_K:  3.945e-08  alpha:  5.963e-01  linmin:  1.948e-07  t[s]:    587.36
	Linear fluid (dielectric constant: 78.4, screening length: 5.74355 Bohr) occupying 0.711466 of unit cell:	Completed after 2 iterations at t[s]:    591.32
	Linear fluid (dielectric constant: 78.4, screening length: 5.74355 Bohr) occupying 0.711466 of unit cell:	Completed after 0 iterations at t[s]:    595.77
ElecMinimize: 	Step increased F by 1.718223e-08, reducing alpha to 1.733813e-02.
	Linear fluid (dielectric constant: 78.4, screening length: 5.74355 Bohr) occupying 0.711466 of unit cell:	Completed after 0 iterations at t[s]:    603.22
ElecMinimize: 	Step increased F by 1.606213e-08, reducing alpha to 1.733813e-03.
	Linear fluid (dielectric constant: 78.4, screening length: 5.74355 Bohr) occupying 0.711466 of unit cell:	Completed after 0 iterations at t[s]:    610.32
ElecMinimize: 	Step increased F by 1.563490e-08, reducing alpha to 1.733813e-04.
ElecMinimize: 	Step failed to reduce F after 3 attempts. Quitting step.
ElecMinimize: 	Undoing step.
	Linear fluid (dielectric constant: 78.4, screening length: 5.74355 Bohr) occupying 0.711466 of unit cell:	Completed after 0 iterations at t[s]:    617.46
ElecMinimize: 	Step failed: resetting search direction.
	FillingsUpdate:  mu: -0.126815200  nElectrons: 157.000000
	SubspaceRotationAdjust: set factor to 0.155
ElecMinimize: Iter:  17  F: -363.887433185156624  |grad|_K:  3.778e-08  alpha:  1.734e-04
	Linear fluid (dielectric constant: 78.4, screening length: 5.74355 Bohr) occupying 0.711467 of unit cell:	Completed after 1 iterations at t[s]:    625.30
	Linear fluid (dielectric constant: 78.4, screening length: 5.74355 Bohr) occupying 0.711467 of unit cell:	Completed after 0 iterations at t[s]:    629.53
ElecMinimize: 	Step increased F by 9.476935e-10, reducing alpha to 2.471287e-02.
	Linear fluid (dielectric constant: 78.4, screening length: 5.74355 Bohr) occupying 0.711466 of unit cell:	Completed after 0 iterations at t[s]:    636.10
ElecMinimize: 	Step increased F by 8.691416e-09, reducing alpha to 2.471287e-03.
	Linear fluid (dielectric constant: 78.4, screening length: 5.74355 Bohr) occupying 0.711466 of unit cell:	Completed after 0 iterations at t[s]:    643.13
ElecMinimize: 	Step increased F by 9.557198e-09, reducing alpha to 2.471287e-04.
ElecMinimize: 	Step failed to reduce F after 3 attempts. Quitting step.
ElecMinimize: 	Undoing step.
	Linear fluid (dielectric constant: 78.4, screening length: 5.74355 Bohr) occupying 0.711466 of unit cell:	Completed after 0 iterations at t[s]:    649.88
ElecMinimize: 	Step failed along negative gradient direction.
ElecMinimize: Probably at roundoff error limit. (Stopping)
Setting wave functions to eigenvectors of Hamiltonian
Single-point solvation energy estimate, DeltaF = -0.008542699420616

# Ionic positions in lattice coordinates:
ion La   0.162825083646429   0.325650214871806   0.568977274875682 0
ion La   0.666666643263158   0.333333334105264   0.570488503642756 0
ion La   0.162825083646429   0.837174893721992   0.568977274875682 0
ion La   0.674349762496615   0.837174893721992   0.568977274875682 0
ion La   0.335011766248295   0.167505895597832   0.428711812981829 0
ion La   0.832494081770589   0.167505895597832   0.428711812981829 0
ion La   0.333333309929824   0.666666667438597   0.430171625833698 0
ion La   0.832494081770589   0.664988211120126   0.428711812981829 0
ion P  -0.000000023403509   0.000000000771930   0.499436393997704 0
ion P   0.500258982349138   0.000518012277224   0.501009759390740 0
ion P  -0.000518034908802   0.499740995019284   0.501009759390740 0
ion P   0.500258982349138   0.499740995019284   0.501009759390740 0
ion I   0.332057322259818   0.166028673603594   0.667077973765090 0
ion I   0.833971303764828   0.166028673603594   0.667077973765090 0
ion I   0.833971303764828   0.667942655108604   0.667077973765090 0
ion I   0.167137777166872   0.334275601912693   0.334121031712716 0
ion I   0.666666643263158   0.333333334105264   0.333580271347671 0
ion I   0.167137777166872   0.832862200201549   0.334121031712716 0
ion I   0.665724375455729   0.832862200201549   0.334121031712716 0


# Forces in Lattice coordinates:
force La   0.000000000000000   0.011782337379131   0.052142355667940 0
force La   0.000000000000000   0.000000000000000   0.046648164150204 0
force La   0.011782337379134  -0.011782337379134   0.052142355667940 0
force La  -0.011782337379134   0.000000000000000   0.052142355667940 0
force La  -0.010031775639456  -0.000000000000000   0.101386985504923 0
force La   0.010031775639456  -0.010031775639456   0.101386985505037 0
force La   0.000000000000000   0.000000000000000   0.049678606864892 0
force La   0.000000000000000   0.010031775639456   0.101386985504810 0
force P   0.000000000000000  -0.000000000000000  -0.057949595885627 0
force P   0.000000000000000  -0.016302111967374  -0.025500943879504 0
force P   0.016302111967375   0.000000000000000  -0.025500943879511 0
force P  -0.016302111967375   0.016302111967375  -0.025500943879511 0
force I  -0.001719518974143  -0.000000000000000   0.055128927313523 0
force I   0.001719518974144  -0.001719518974144   0.055128927313410 0
force I   0.000000000000000   0.001719518974143   0.055128927313637 0
force I   0.000000000000000   0.001782270003397  -0.142542267451022 0
force I   0.000000000000000   0.000000000000000  -0.169703373082408 0
force I   0.001782270003397  -0.001782270003397  -0.142542267451136 0
force I  -0.001782270003397  -0.000000000000000  -0.142542267451363 0

# Energy components:
   A_diel =       -0.0286444071634427
   Eewald =     2869.7969173247629442
       EH =     3172.6078590906959107
     Eloc =    -6458.0903770100594556
      Enl =       16.9984561278308384
      Exc =     -378.5793260290126909
 Exc_core =      308.3053642211500573
       KE =      105.1217653442957243
-------------------------------------
     Etot =     -363.8679853374996469
       TS =        0.0194478380997242
-------------------------------------
        F =     -363.8874331755993694

IonicMinimize: Iter:   0  F: -363.887433175599369  |grad|_K:  0.000e+00  t[s]:    656.62
IonicMinimize: Converged (|grad|_K<1.000000e-04).

#--- Lowdin population analysis ---
# oxidation-state La -0.066 -0.307 -0.066 -0.066 -0.299 -0.299 -0.299 -0.299
# oxidation-state P +0.171 +0.124 +0.124 +0.124
# oxidation-state I +0.189 +0.189 +0.189 +0.216 +0.228 +0.216 +0.216


Dumping 'NbTe2.fillings' ... done
Dumping 'NbTe2.wfns' ... done
Dumping 'NbTe2.fluidState' ... done
Dumping 'NbTe2.eigenvals' ... done
End date and time: Sun Jul 12 15:00:23 2020  (Duration: 0-0:10:57.87)
Done!
