
*************** JDFTx 1.5.0  ***************

Start date and time: Thu Jan 21 22:28:11 2021
Executable jdftx_gpu with command-line: -i Charged.in -o Charged.out
Running on hosts (process indices):  amax (0-4)
Divided in process groups (process indices):  0 (0)  1 (1)  2 (2)  3 (3)  4 (4)
gpuInit: Found compatible cuda device 0 'Tesla K80'
gpuInit: Found compatible cuda device 1 'Tesla K80'
gpuInit: Found compatible cuda device 2 'Tesla K80'
gpuInit: Found compatible cuda device 3 'Tesla K80'
gpuInit: Found compatible cuda device 4 'Tesla K80'
gpuInit: Selected device 0
Resource initialization completed at t[s]:      2.41
Run totals: 5 processes, 24 threads, 5 GPUs


Input parsed successfully to the following command list (including defaults):

basis kpoint-dependent
cache-projectors no
coords-type Lattice
core-overlap-check none
coulomb-interaction Slab 001
coulomb-truncation-embed 0.5 0.5 0.5
davidson-band-ratio 1.1
dump End State
dump-name NbTe2.$VAR
elec-cutoff 20
elec-eigen-algo Davidson
elec-ex-corr gga-PBE
elec-initial-charge 1.000000
elec-initial-magnetization 5.000000 no
elec-smearing Gauss 0.0073499
electronic-minimize  \
	dirUpdateScheme      FletcherReeves \
	linminMethod         DirUpdateRecommended \
	nIterations          200 \
	history              15 \
	knormThreshold       0 \
	energyDiffThreshold  1e-08 \
	nEnergyDiff          2 \
	alphaTstart          1 \
	alphaTmin            1e-10 \
	updateTestStepSize   yes \
	alphaTreduceFactor   0.1 \
	alphaTincreaseFactor 3 \
	nAlphaAdjustMax      3 \
	wolfeEnergy          0.0001 \
	wolfeGradient        0.9 \
	fdTest               no
exchange-regularization WignerSeitzTruncated
fluid LinearPCM 298.000000 1.013250
fluid-anion F- 1 MeanFieldLJ \
	epsBulk 1 \
	pMol 0 \
	epsInf 1 \
	Pvap 0 \
	sigmaBulk 0 \
	Rvdw 2.24877 \
	Res 0 \
	tauNuc 343133
fluid-cation Na+ 1 MeanFieldLJ \
	epsBulk 1 \
	pMol 0 \
	epsInf 1 \
	Pvap 0 \
	sigmaBulk 0 \
	Rvdw 2.19208 \
	Res 0 \
	tauNuc 343133
fluid-ex-corr lda-TF lda-PZ
fluid-gummel-loop 10 1.000000e-05
fluid-minimize  \
	dirUpdateScheme      PolakRibiere \
	linminMethod         DirUpdateRecommended \
	nIterations          400 \
	history              15 \
	knormThreshold       1e-11 \
	energyDiffThreshold  0 \
	nEnergyDiff          2 \
	alphaTstart          1 \
	alphaTmin            1e-10 \
	updateTestStepSize   yes \
	alphaTreduceFactor   0.1 \
	alphaTincreaseFactor 3 \
	nAlphaAdjustMax      6 \
	wolfeEnergy          0.0001 \
	wolfeGradient        0.9 \
	fdTest               no
fluid-solvent H2O 55.338 ScalarEOS \
	epsBulk 78.4 \
	pMol 0.92466 \
	epsInf 1.77 \
	Pvap 1.06736e-10 \
	sigmaBulk 4.62e-05 \
	Rvdw 2.61727 \
	Res 1.42 \
	tauNuc 343133 \
	poleEl 15 7 1
forces-output-coords Positions
initial-state NbTe2.$VAR
ion B   0.166670001000000   0.083329999999997   0.500000000000000 1
ion B   0.416670013000001   0.083329999999997   0.500000000000000 1
ion B   0.666670035999999   0.083329999999997   0.500000000000000 1
ion B   0.916669964999997   0.083329999999997   0.500000000000000 1
ion B   0.166669992999999   0.333330009000001   0.500000000000000 1
ion B   0.416670005000000   0.333330009000001   0.500000000000000 1
ion B   0.666670005000000   0.333330009000001   0.500000000000000 1
ion B   0.916669980999998   0.333330009000001   0.500000000000000 1
ion B   0.166670009999997   0.583330017999998   0.500000000000000 1
ion B   0.416670021999998   0.583330017999998   0.500000000000000 1
ion B   0.666670046000000   0.583330017999998   0.500000000000000 1
ion B   0.916669998000003   0.583330017999998   0.500000000000000 1
ion B   0.166669990999999   0.833330027999999   0.500000000000000 1
ion B   0.416670013999997   0.833330027999999   0.500000000000000 1
ion B   0.666670037999999   0.833330027999999   0.500000000000000 1
ion B   0.916670013999997   0.833330027999999   0.500000000000000 1
ion N   0.083329997000000   0.166669994999999   0.500000000000000 1
ion N   0.333330021000002   0.166669994999999   0.500000000000000 1
ion N   0.583329997000000   0.166669994999999   0.500000000000000 1
ion N   0.833330021000002   0.166669994999999   0.500000000000000 1
ion N   0.083329997000000   0.416670017999998   0.500000000000000 1
ion N   0.333330019999998   0.416670017999998   0.500000000000000 1
ion N   0.583329997000000   0.416670017999998   0.500000000000000 1
ion N   0.833329997000000   0.416670017999998   0.500000000000000 1
ion N   0.083329988999999   0.666670027000002   0.500000000000000 1
ion N   0.333330013000001   0.666670027000002   0.500000000000000 1
ion N   0.583329988999999   0.666670027000002   0.500000000000000 1
ion N   0.833330013000001   0.666670027000002   0.500000000000000 1
ion N   0.083330005999997   0.916670035999999   0.500000000000000 1
ion N   0.333330029000003   0.916670035999999   0.500000000000000 1
ion N   0.583330005999997   0.916670035999999   0.500000000000000 1
ion N   0.833330029000003   0.916670035999999   0.500000000000000 1
ion-species GBRV/$ID_pbe.uspp
ion-width Ecut
ionic-minimize  \
	dirUpdateScheme      L-BFGS \
	linminMethod         DirUpdateRecommended \
	nIterations          500 \
	history              15 \
	knormThreshold       0.0001 \
	energyDiffThreshold  1e-06 \
	nEnergyDiff          2 \
	alphaTstart          1 \
	alphaTmin            1e-10 \
	updateTestStepSize   yes \
	alphaTreduceFactor   0.1 \
	alphaTincreaseFactor 3 \
	nAlphaAdjustMax      3 \
	wolfeEnergy          0.0001 \
	wolfeGradient        0.9 \
	fdTest               no
kpoint   0.000000000000   0.000000000000   0.000000000000  1.00000000000000
kpoint-folding 6 6 1 
latt-move-scale 1 1 1
latt-scale 1.88973 1.88973 1.88973 
lattice Triclinic 10.0123 10.0123 15 90 90 120
lattice-minimize  \
	dirUpdateScheme      L-BFGS \
	linminMethod         DirUpdateRecommended \
	nIterations          0 \
	history              15 \
	knormThreshold       0 \
	energyDiffThreshold  1e-06 \
	nEnergyDiff          2 \
	alphaTstart          1 \
	alphaTmin            1e-10 \
	updateTestStepSize   yes \
	alphaTreduceFactor   0.1 \
	alphaTincreaseFactor 3 \
	nAlphaAdjustMax      3 \
	wolfeEnergy          0.0001 \
	wolfeGradient        0.9 \
	fdTest               no
lcao-params -1 1e-06 0.0073499
pcm-variant CANDLE
spintype z-spin
subspace-rotation-factor 1 yes
symmetries automatic
symmetry-threshold 0.0001



---------- Setting up symmetries ----------

Found 24 point-group symmetries of the bravais lattice
Found 64 space-group symmetries with basis
Applied RMS atom displacement 3.8962e-07 bohrs to make symmetries exact.

---------- Initializing the Grid ----------
R = 
[    18.9205   -9.46025          0  ]
[          0    16.3856          0  ]
[          0          0    28.3459  ]
unit cell volume = 8787.92
G =
[   0.332083   0.191728         -0  ]
[          0   0.383457          0  ]
[          0         -0   0.221661  ]
Minimum fftbox size, Smin = [  80  80  116  ]
Chosen fftbox size, S = [  80  80  120  ]

---------- Exchange Correlation functional ----------
Initalized PBE GGA exchange.
Initalized PBE GGA correlation.

---------- Setting up pseudopotentials ----------
Width of ionic core gaussian charges (only for fluid interactions / plotting) set to 0.397384

Reading pseudopotential file '/home/guoxy/vasp/jdftx-1.5.0/build/pseudopotentials/GBRV/b_pbe.uspp':
  Title: B.  Created by USPP 7.3.6 on 8-4-15
  Reference state energy: -2.950027.  3 valence electrons in orbitals:
    |200>  occupation: 2  eigenvalue: -0.346865
    |210>  occupation: 1  eigenvalue: -0.132618
  lMax: 1  lLocal: 2  QijEcut: 6
  4 projectors sampled on a log grid with 559 points:
    l: 0  eig: -0.346865  rCut: 1.25
    l: 0  eig: -0.500000  rCut: 1.25
    l: 1  eig: -0.346865  rCut: 1.25
    l: 1  eig: -1.000000  rCut: 1.25
  Partial core density with radius 0.9
  Transforming core density to a uniform radial grid of dG=0.02 with 1491 points.
  Transforming local potential to a uniform radial grid of dG=0.02 with 1491 points.
  Transforming nonlocal projectors to a uniform radial grid of dG=0.02 with 432 points.
  Transforming density augmentations to a uniform radial grid of dG=0.02 with 1491 points.
  Transforming atomic orbitals to a uniform radial grid of dG=0.02 with 432 points.
  Core radius for overlap checks: 1.25 bohrs.

Reading pseudopotential file '/home/guoxy/vasp/jdftx-1.5.0/build/pseudopotentials/GBRV/n_pbe.uspp':
  Title: N.  Created by USPP 7.3.6 on 3-2-2014
  Reference state energy: -9.763716.  5 valence electrons in orbitals:
    |200>  occupation: 2  eigenvalue: -0.681964
    |210>  occupation: 3  eigenvalue: -0.260726
  lMax: 1  lLocal: 2  QijEcut: 6
  4 projectors sampled on a log grid with 491 points:
    l: 0  eig: -0.681964  rCut: 1.15
    l: 0  eig: 0.000000  rCut: 1.15
    l: 1  eig: -0.260729  rCut: 1.2
    l: 1  eig: 0.500000  rCut: 1.2
  Partial core density with radius 0.8
  Transforming core density to a uniform radial grid of dG=0.02 with 1491 points.
  Transforming local potential to a uniform radial grid of dG=0.02 with 1491 points.
  Transforming nonlocal projectors to a uniform radial grid of dG=0.02 with 432 points.
  Transforming density augmentations to a uniform radial grid of dG=0.02 with 1491 points.
  Transforming atomic orbitals to a uniform radial grid of dG=0.02 with 432 points.
  Core radius for overlap checks: 1.20 bohrs.

Initialized 2 species with 32 total atoms.

Folded 1 k-points by 6x6x1 to 36 k-points.

---------- Setting up k-points, bands, fillings ----------
Adding inversion symmetry to k-mesh for non-inversion-symmetric unit cell.
Reduced to 13 k-points under symmetry. 
Computing the number of bands and number of electrons
Calculating initial fillings.
nElectrons: 129.000000   nBands: 128   nStates: 26

----- Setting up reduced wavefunction bases (one per k-point) -----
average nbasis = 37544.417 , ideal nbasis = 37542.666

---------- Setting up coulomb interaction ----------
Fluid mode embedding: using embedded box, but periodic Coulomb kernel.
(Fluid response is responsible for (approximate) separation between periodic images.)
Setting up double-sized grid for truncated Coulomb potentials:
R = 
[    18.9205   -9.46025          0  ]
[          0    16.3856          0  ]
[          0          0    56.6918  ]
unit cell volume = 17575.8
G =
[   0.332083   0.191728         -0  ]
[          0   0.383457          0  ]
[          0         -0   0.110831  ]
Chosen fftbox size, S = [  80  80  240  ]
Integer grid location selected as the embedding center:
   Grid: [  40  40  60  ]
   Lattice: [  0.5  0.5  0.5  ]
   Cartesian: [  4.73013  8.19282  14.1729  ]
Constructing Wigner-Seitz cell: 8 faces (6 quadrilaterals, 2 hexagons)
Range-separation parameter for embedded mesh potentials due to point charges: 0.613524 bohrs.

Initializing van der Waals corrections
	NOTE: vdW corrections apply only for interactions with fluid.
	 B:  C6:   54.29 Eh-a0^6  R0: 2.806 a0
	 N:  C6:   21.33 Eh-a0^6  R0: 2.640 a0

---------- Setting up ewald sum ----------
Optimum gaussian width for ewald sums = 5.821351 bohr.
Real space sum over 605 unit cells with max indices [  5  5  2  ]
Reciprocal space sum over 5577 terms with max indices [  6  6  16  ]

---------- Allocating electronic variables ----------
Initializing wave functions:  linear combination of atomic orbitals
B pseudo-atom occupations:   s ( 2 )  p ( 1 )
N pseudo-atom occupations:   s ( 2 )  p ( 3 )
	FillingsUpdate:  mu: +0.040579657  nElectrons: 129.000000  magneticMoment: [ Abs: 1.35661  Tot: +0.83638 ]
LCAOMinimize: Iter:   0  F: -203.9500742651842131  |grad|_K:  4.305e-03  alpha:  1.000e+00
	FillingsUpdate:  mu: +0.066424250  nElectrons: 129.000000  magneticMoment: [ Abs: 1.26154  Tot: +0.91742 ]
LCAOMinimize: Iter:   1  F: -205.3421972938885460  |grad|_K:  5.470e-04  alpha:  4.286e-01  linmin:  5.973e-01  cgtest: -1.095e+00  t[s]:    104.09
LCAOMinimize: 	Bad step direction: g.d > 0.
LCAOMinimize: 	Undoing step.
LCAOMinimize: 	Step failed: resetting search direction.
	FillingsUpdate:  mu: +0.066424250  nElectrons: 129.000000  magneticMoment: [ Abs: 1.26154  Tot: +0.91742 ]
LCAOMinimize: Iter:   2  F: -205.3421972938885460  |grad|_K:  5.470e-04  alpha:  0.000e+00
	FillingsUpdate:  mu: +0.062098507  nElectrons: 129.000000  magneticMoment: [ Abs: 1.16446  Tot: +0.79114 ]
LCAOMinimize: Iter:   3  F: -205.3684890327083394  |grad|_K:  5.208e-05  alpha:  4.055e-01  linmin:  2.744e-02  cgtest: -1.921e-01  t[s]:    158.55
LCAOMinimize: 	Predicted alpha/alphaT>3.000000, increasing alphaT to 1.216431e+00.
	FillingsUpdate:  mu: +0.062831447  nElectrons: 129.000000  magneticMoment: [ Abs: 0.44551  Tot: -0.40172 ]
LCAOMinimize: Iter:   4  F: -205.3690671099443250  |grad|_K:  6.060e-05  alpha:  2.910e+00  linmin:  1.231e-01  cgtest: -3.355e-01  t[s]:    203.22
LCAOMinimize: 	Bad step direction: g.d > 0.
LCAOMinimize: 	Undoing step.
LCAOMinimize: 	Step failed: resetting search direction.
	FillingsUpdate:  mu: +0.062831447  nElectrons: 129.000000  magneticMoment: [ Abs: 0.44551  Tot: -0.40172 ]
LCAOMinimize: Iter:   5  F: -205.3690671099443250  |grad|_K:  6.060e-05  alpha:  0.000e+00
	FillingsUpdate:  mu: +0.063073526  nElectrons: 129.000000  magneticMoment: [ Abs: 0.17181  Tot: -0.16756 ]
LCAOMinimize: Iter:   6  F: -205.3698067774287495  |grad|_K:  3.504e-05  alpha:  9.236e-01  linmin: -8.246e-04  cgtest: -2.225e-02  t[s]:    258.96
	FillingsUpdate:  mu: +0.062797353  nElectrons: 129.000000  magneticMoment: [ Abs: 0.13796  Tot: -0.07381 ]
LCAOMinimize: Iter:   7  F: -205.3699474399204803  |grad|_K:  5.537e-06  alpha:  5.287e-01  linmin:  2.877e-04  cgtest:  6.698e-02  t[s]:    293.46
LCAOMinimize: 	Predicted alpha/alphaT>3.000000, increasing alphaT to 1.586103e+00.
	FillingsUpdate:  mu: +0.062868754  nElectrons: 129.000000  magneticMoment: [ Abs: 0.06238  Tot: -0.02977 ]
LCAOMinimize: Iter:   8  F: -205.3699598415463754  |grad|_K:  3.222e-06  alpha:  1.871e+00  linmin:  6.129e-04  cgtest: -9.708e-04  t[s]:    336.84
	FillingsUpdate:  mu: +0.062865612  nElectrons: 129.000000  magneticMoment: [ Abs: 0.01757  Tot: -0.00822 ]
LCAOMinimize: Iter:   9  F: -205.3699626661928903  |grad|_K:  2.450e-06  alpha:  1.259e+00  linmin:  1.097e-07  cgtest:  1.393e-03  t[s]:    371.43
	FillingsUpdate:  mu: +0.062837837  nElectrons: 129.000000  magneticMoment: [ Abs: 0.00310  Tot: -0.00129 ]
LCAOMinimize: Iter:  10  F: -205.3699633780555018  |grad|_K:  3.828e-07  alpha:  5.483e-01  linmin:  4.188e-04  cgtest: -2.925e-03  t[s]:    405.80
	FillingsUpdate:  mu: +0.062843205  nElectrons: 129.000000  magneticMoment: [ Abs: 0.00118  Tot: -0.00035 ]
LCAOMinimize: Iter:  11  F: -205.3699634131434664  |grad|_K:  3.128e-08  alpha:  1.107e+00  linmin: -1.991e-04  cgtest:  3.846e-03  t[s]:    439.04
LCAOMinimize: Converged (|Delta F|<1.000000e-06 for 2 iters).
----- createFluidSolver() ----- (Fluid-side solver setup)
   Initializing fluid molecule 'H2O'
     Initializing site 'O'
       Electron density: proportional to exp(-r/0.36935)*erfc((r-0.51523)/0.36823) with norm 6.826
       Charge density: gaussian nuclear width 0.478731 with net site charge 0.826
       Polarizability: cuspless exponential with width 0.32 and norm 3.73
       Hard sphere radius: 2.57003 bohrs
       Positions in reference frame:
         [ +0.000000 +0.000000 +0.000000 ]
     Initializing site 'H'
       Electron density: proportional to exp(-r/0.34641)*erfc((r-0)/0.390882) with norm 0.587
       Charge density: gaussian nuclear width 0.377945 with net site charge -0.413
       Polarizability: cuspless exponential with width 0.39 and norm 3.3
       Positions in reference frame:
         [ +0.000000 -1.441945 +1.122523 ]
         [ +0.000000 +1.441945 +1.122523 ]
     Net charge: 0   dipole magnitude: 0.927204
     Initializing spherical shell mfKernel with radius 2.61727 Bohr
     deltaS corrections:
       site 'O': -7.54299
       site 'H': -6.83917
   Initializing fluid molecule 'Na+'
     Initializing site 'Na'
       Electron density: proportional to exp(-r/0.19682)*erfc((r-0.71491)/0.41314) with norm 8.1383
       Charge density: gaussian nuclear width 0.365347 with net site charge -1
       Hard sphere radius: 1.86327 bohrs
       Positions in reference frame:
         [ +0.000000 +0.000000 +0.000000 ]
     Net charge: -1   dipole magnitude: 0
     Initializing gaussian mfKernel with width: 1.55004 Bohr
     deltaS corrections:
       site 'Na': -22.3555
   Initializing fluid molecule 'F-'
     Initializing site 'F'
       Electron density: proportional to exp(-r/0.38886)*erfc((r-0)/0.438782) with norm 8
       Charge density: gaussian nuclear width 0.374796 with net site charge 1
       Hard sphere radius: 2.39995 bohrs
       Positions in reference frame:
         [ +0.000000 +0.000000 +0.000000 ]
     Net charge: 1   dipole magnitude: 0
     Initializing gaussian mfKernel with width: 1.59012 Bohr
     deltaS corrections:
       site 'F': -9.04335

Correction to mu due to finite nuclear width = -0.00722593
   Cavity determined by nc: 0.00142 and sigma: 0.707107
   Nonlocal vdW cavity from gaussian model electron density with norm = 8 and sigma = 0.993594 bohr
   Charge asymmetry in cavity with sensitivity pCavity = 36.5 e-bohr/Eh
   Electrostatic cavity expanded by eta = 1.46 bohrs
   Weighted density cavitation model constrained by Nbulk: 0.0049383 bohr^-3, Pvap: 3.14029 kPa, Rvdw: 2.61727 bohr and sigmaBulk: 4.62e-05 Eh/bohr^2 at T: 298 K.
   Weighted density dispersion model using vdW pair potentials with single solvent site with sqrtC6eff: 0.77 SI.


---- Citations for features of the code used in this run ----

   Software package:
      R. Sundararaman, K. Letchworth-Weaver, K.A. Schwarz, D. Gunceler, Y. Ozhabes and T.A. Arias, 'JDFTx: software for joint density-functional theory', SoftwareX 6, 278 (2017)

   gga-PBE exchange-correlation functional:
      J.P. Perdew, K. Burke and M. Ernzerhof, Phys. Rev. Lett. 77, 3865 (1996)

   Pseudopotentials:
      KF Garrity, JW Bennett, KM Rabe and D Vanderbilt, Comput. Mater. Sci. 81, 446 (2014)

   Truncated Coulomb potentials:
      R. Sundararaman and T.A. Arias, Phys. Rev. B 87, 165122 (2013)

   Van der Waals correction pair-potentials:
      S. Grimme, J. Comput. Chem. 27, 1787 (2006)

   Charge-asymmetric nonlocally-determined local-electric (CANDLE) solvation model:
      R. Sundararaman and W.A. Goddard III, J. Chem. Phys. 142, 064107 (2015)

   Total energy minimization with Auxiliary Hamiltonian:
      C. Freysoldt, S. Boeck, and J. Neugebauer, Phys. Rev. B 79, 241103(R) (2009)

This list may not be complete. Please suggest additional citations or
report any other bugs at https://github.com/shankar1729/jdftx/issues

Initialization completed successfully at t[s]:    442.62

Fluid solver invoked on fresh (partially random / LCAO) wavefunctions
Running a vacuum solve first:

-------- Initial electronic minimization -----------
	FillingsUpdate:  mu: +0.062843205  nElectrons: 129.000000  magneticMoment: [ Abs: 0.00118  Tot: -0.00035 ]
ElecMinimize: Iter:   0  F: -205.369963413144376  |grad|_K:  1.182e-04  alpha:  1.000e+00
	FillingsUpdate:  mu: +0.142055300  nElectrons: 129.000000  magneticMoment: [ Abs: 0.00088  Tot: -0.00032 ]
	SubspaceRotationAdjust: set factor to 1
ElecMinimize: Iter:   1  F: -206.662356174545891  |grad|_K:  3.444e-05  alpha:  7.384e-01  linmin:  1.027e-04  t[s]:    506.39
	FillingsUpdate:  mu: +0.148487229  nElectrons: 129.000000  magneticMoment: [ Abs: 0.00069  Tot: -0.00035 ]
	SubspaceRotationAdjust: set factor to 0.688
ElecMinimize: Iter:   2  F: -206.779537493028016  |grad|_K:  1.746e-05  alpha:  7.896e-01  linmin: -6.794e-05  t[s]:    545.80
	FillingsUpdate:  mu: +0.143750240  nElectrons: 129.000000  magneticMoment: [ Abs: 0.00058  Tot: -0.00039 ]
	SubspaceRotationAdjust: set factor to 0.585
ElecMinimize: Iter:   3  F: -206.803465258691688  |grad|_K:  8.918e-06  alpha:  6.178e-01  linmin:  2.302e-05  t[s]:    585.33
	FillingsUpdate:  mu: +0.142785602  nElectrons: 129.000000  magneticMoment: [ Abs: 0.00049  Tot: -0.00038 ]
	SubspaceRotationAdjust: set factor to 0.73
ElecMinimize: Iter:   4  F: -206.811944031049109  |grad|_K:  4.406e-06  alpha:  8.616e-01  linmin:  1.040e-04  t[s]:    623.57
	FillingsUpdate:  mu: +0.143389071  nElectrons: 129.000000  magneticMoment: [ Abs: 0.00042  Tot: -0.00031 ]
	SubspaceRotationAdjust: set factor to 0.899
ElecMinimize: Iter:   5  F: -206.814078770538174  |grad|_K:  2.657e-06  alpha:  8.953e-01  linmin:  3.684e-05  t[s]:    662.91
	FillingsUpdate:  mu: +0.139583294  nElectrons: 129.000000  magneticMoment: [ Abs: 0.00245  Tot: +0.00222 ]
	SubspaceRotationAdjust: set factor to 0.697
ElecMinimize: Iter:   6  F: -206.815021066877819  |grad|_K:  2.854e-06  alpha:  9.564e-01  linmin: -1.295e-03  t[s]:    702.05
ElecMinimize: 	Wrong curvature in test step, increasing alphaT to 2.869072e+00.
	FillingsUpdate:  mu: +0.075182296  nElectrons: 129.000000  magneticMoment: [ Abs: 0.12279  Tot: +0.10803 ]
	SubspaceRotationAdjust: set factor to 0.649
ElecMinimize: Iter:   7  F: -206.824407950081991  |grad|_K:  8.316e-06  alpha: -4.709e-01  linmin:  1.313e-04  t[s]:    739.42
	FillingsUpdate:  mu: +0.075131609  nElectrons: 129.000000  magneticMoment: [ Abs: 0.12293  Tot: +0.10820 ]
	SubspaceRotationAdjust: set factor to 0.879
ElecMinimize: Iter:   8  F: -206.824408933781626  |grad|_K:  8.106e-06  alpha:  1.548e-04  linmin: -9.297e-05  t[s]:    778.55
ElecMinimize: 	Predicted alpha/alphaT>3.000000, increasing alphaT to 4.645460e-04.
ElecMinimize: 	Predicted alpha/alphaT>3.000000, increasing alphaT to 1.393638e-03.
ElecMinimize: 	Predicted alpha/alphaT>3.000000, increasing alphaT to 4.180914e-03.
	FillingsUpdate:  mu: +0.073201321  nElectrons: 129.000000  magneticMoment: [ Abs: 0.12828  Tot: +0.11489 ]
	SubspaceRotationAdjust: set factor to 0.951
ElecMinimize: Iter:   9  F: -206.824477693397483  |grad|_K:  8.893e-06  alpha:  6.320e-03  linmin:  1.041e-05  t[s]:    842.26
	FillingsUpdate:  mu: +0.071911269  nElectrons: 129.000000  magneticMoment: [ Abs: 0.13199  Tot: +0.11949 ]
	SubspaceRotationAdjust: set factor to 0.961
ElecMinimize: Iter:  10  F: -206.824512040663990  |grad|_K:  9.245e-06  alpha:  3.581e-03  linmin: -9.746e-07  t[s]:    882.05
	FillingsUpdate:  mu: +0.070577699  nElectrons: 129.000000  magneticMoment: [ Abs: 0.13589  Tot: +0.12434 ]
	SubspaceRotationAdjust: set factor to 0.94
ElecMinimize: Iter:  11  F: -206.824549887808615  |grad|_K:  9.451e-06  alpha:  3.523e-03  linmin:  1.511e-06  t[s]:    920.90
	FillingsUpdate:  mu: +0.069299964  nElectrons: 129.000000  magneticMoment: [ Abs: 0.13971  Tot: +0.12907 ]
	SubspaceRotationAdjust: set factor to 0.907
ElecMinimize: Iter:  12  F: -206.824586918763998  |grad|_K:  9.566e-06  alpha:  3.332e-03  linmin:  1.180e-06  t[s]:    960.27
	FillingsUpdate:  mu: +0.068064485  nElectrons: 129.000000  magneticMoment: [ Abs: 0.14350  Tot: +0.13370 ]
	SubspaceRotationAdjust: set factor to 0.869
ElecMinimize: Iter:  13  F: -206.824624020837405  |grad|_K:  9.630e-06  alpha:  3.257e-03  linmin:  1.131e-06  t[s]:   1001.19
	FillingsUpdate:  mu: +0.066876822  nElectrons: 129.000000  magneticMoment: [ Abs: 0.14723  Tot: +0.13818 ]
	SubspaceRotationAdjust: set factor to 0.832
ElecMinimize: Iter:  14  F: -206.824661057022098  |grad|_K:  9.663e-06  alpha:  3.209e-03  linmin:  1.020e-06  t[s]:   1040.39
	FillingsUpdate:  mu: +0.065739158  nElectrons: 129.000000  magneticMoment: [ Abs: 0.15085  Tot: +0.14250 ]
	SubspaceRotationAdjust: set factor to 0.796
ElecMinimize: Iter:  15  F: -206.824698019141238  |grad|_K:  9.677e-06  alpha:  3.180e-03  linmin:  9.221e-07  t[s]:   1078.19
	FillingsUpdate:  mu: +0.064653378  nElectrons: 129.000000  magneticMoment: [ Abs: 0.15432  Tot: +0.14661 ]
	SubspaceRotationAdjust: set factor to 0.763
ElecMinimize: Iter:  16  F: -206.824734875412531  |grad|_K:  9.678e-06  alpha:  3.161e-03  linmin:  8.345e-07  t[s]:   1117.90
	FillingsUpdate:  mu: +0.063620621  nElectrons: 129.000000  magneticMoment: [ Abs: 0.15762  Tot: +0.15050 ]
	SubspaceRotationAdjust: set factor to 0.732
ElecMinimize: Iter:  17  F: -206.824771598560403  |grad|_K:  9.673e-06  alpha:  3.148e-03  linmin:  7.593e-07  t[s]:   1155.39
	FillingsUpdate:  mu: +0.062641350  nElectrons: 129.000000  magneticMoment: [ Abs: 0.16075  Tot: +0.15414 ]
	SubspaceRotationAdjust: set factor to 0.705
ElecMinimize: Iter:  18  F: -206.824808164206360  |grad|_K:  9.663e-06  alpha:  3.137e-03  linmin:  6.957e-07  t[s]:   1190.67
	FillingsUpdate:  mu: +0.061715376  nElectrons: 129.000000  magneticMoment: [ Abs: 0.16369  Tot: +0.15752 ]
	SubspaceRotationAdjust: set factor to 0.68
ElecMinimize: Iter:  19  F: -206.824844552513127  |grad|_K:  9.652e-06  alpha:  3.128e-03  linmin:  6.422e-07  t[s]:   1230.58
	FillingsUpdate:  mu: +0.060841894  nElectrons: 129.000000  magneticMoment: [ Abs: 0.16640  Tot: +0.16064 ]
	SubspaceRotationAdjust: set factor to 0.658
ElecMinimize: Iter:  20  F: -206.824880749056945  |grad|_K:  9.642e-06  alpha:  3.118e-03  linmin:  5.971e-07  t[s]:   1269.93
	FillingsUpdate:  mu: +0.060019541  nElectrons: 129.000000  magneticMoment: [ Abs: 0.16889  Tot: +0.16348 ]
	SubspaceRotationAdjust: set factor to 0.639
ElecMinimize: Iter:  21  F: -206.824916745509768  |grad|_K:  9.634e-06  alpha:  3.106e-03  linmin:  5.590e-07  t[s]:   1308.80
	FillingsUpdate:  mu: +0.059246466  nElectrons: 129.000000  magneticMoment: [ Abs: 0.17115  Tot: +0.16606 ]
	SubspaceRotationAdjust: set factor to 0.622
ElecMinimize: Iter:  22  F: -206.824952540016625  |grad|_K:  9.631e-06  alpha:  3.093e-03  linmin:  5.264e-07  t[s]:   1347.07
	FillingsUpdate:  mu: +0.058520410  nElectrons: 129.000000  magneticMoment: [ Abs: 0.17317  Tot: +0.16837 ]
	SubspaceRotationAdjust: set factor to 0.607
ElecMinimize: Iter:  23  F: -206.824988137186551  |grad|_K:  9.634e-06  alpha:  3.078e-03  linmin:  4.983e-07  t[s]:   1386.16
	FillingsUpdate:  mu: +0.057838793  nElectrons: 129.000000  magneticMoment: [ Abs: 0.17497  Tot: +0.17042 ]
	SubspaceRotationAdjust: set factor to 0.595
ElecMinimize: Iter:  24  F: -206.825023547851828  |grad|_K:  9.644e-06  alpha:  3.060e-03  linmin:  4.737e-07  t[s]:   1425.11
	FillingsUpdate:  mu: +0.057198796  nElectrons: 129.000000  magneticMoment: [ Abs: 0.17656  Tot: +0.17223 ]
	SubspaceRotationAdjust: set factor to 0.585
ElecMinimize: Iter:  25  F: -206.825058788392511  |grad|_K:  9.662e-06  alpha:  3.038e-03  linmin:  4.519e-07  t[s]:   1464.72
	FillingsUpdate:  mu: +0.056597451  nElectrons: 129.000000  magneticMoment: [ Abs: 0.17793  Tot: +0.17380 ]
	SubspaceRotationAdjust: set factor to 0.576
ElecMinimize: Iter:  26  F: -206.825093879882616  |grad|_K:  9.690e-06  alpha:  3.014e-03  linmin:  4.325e-07  t[s]:   1503.97
	FillingsUpdate:  mu: +0.056031702  nElectrons: 129.000000  magneticMoment: [ Abs: 0.17911  Tot: +0.17514 ]
	SubspaceRotationAdjust: set factor to 0.57
ElecMinimize: Iter:  27  F: -206.825128847047694  |grad|_K:  9.727e-06  alpha:  2.986e-03  linmin:  4.151e-07  t[s]:   1543.17
	FillingsUpdate:  mu: +0.055498479  nElectrons: 129.000000  magneticMoment: [ Abs: 0.18010  Tot: +0.17627 ]
	SubspaceRotationAdjust: set factor to 0.565
ElecMinimize: Iter:  28  F: -206.825163717089197  |grad|_K:  9.774e-06  alpha:  2.954e-03  linmin:  3.995e-07  t[s]:   1582.89
	FillingsUpdate:  mu: +0.054994741  nElectrons: 129.000000  magneticMoment: [ Abs: 0.18090  Tot: +0.17721 ]
	SubspaceRotationAdjust: set factor to 0.562
ElecMinimize: Iter:  29  F: -206.825198518555254  |grad|_K:  9.832e-06  alpha:  2.920e-03  linmin:  3.854e-07  t[s]:   1623.12
	FillingsUpdate:  mu: +0.054517518  nElectrons: 129.000000  magneticMoment: [ Abs: 0.18154  Tot: +0.17796 ]
	SubspaceRotationAdjust: set factor to 0.561
ElecMinimize: Iter:  30  F: -206.825233280152020  |grad|_K:  9.899e-06  alpha:  2.882e-03  linmin:  3.729e-07  t[s]:   1662.54
	FillingsUpdate:  mu: +0.054063942  nElectrons: 129.000000  magneticMoment: [ Abs: 0.18203  Tot: +0.17854 ]
	SubspaceRotationAdjust: set factor to 0.56
ElecMinimize: Iter:  31  F: -206.825268029684764  |grad|_K:  9.977e-06  alpha:  2.842e-03  linmin:  3.618e-07  t[s]:   1700.19
	FillingsUpdate:  mu: +0.053631268  nElectrons: 129.000000  magneticMoment: [ Abs: 0.18238  Tot: +0.17896 ]
	SubspaceRotationAdjust: set factor to 0.561
ElecMinimize: Iter:  32  F: -206.825302793103248  |grad|_K:  1.006e-05  alpha:  2.799e-03  linmin:  3.522e-07  t[s]:   1739.04
	FillingsUpdate:  mu: +0.053216888  nElectrons: 129.000000  magneticMoment: [ Abs: 0.18259  Tot: +0.17923 ]
	SubspaceRotationAdjust: set factor to 0.563
ElecMinimize: Iter:  33  F: -206.825337593645202  |grad|_K:  1.016e-05  alpha:  2.754e-03  linmin:  3.440e-07  t[s]:   1778.41
	FillingsUpdate:  mu: +0.052818341  nElectrons: 129.000000  magneticMoment: [ Abs: 0.18267  Tot: +0.17937 ]
	SubspaceRotationAdjust: set factor to 0.566
ElecMinimize: Iter:  34  F: -206.825372451137127  |grad|_K:  1.026e-05  alpha:  2.707e-03  linmin:  3.373e-07  t[s]:   1818.47
	FillingsUpdate:  mu: +0.052433322  nElectrons: 129.000000  magneticMoment: [ Abs: 0.18264  Tot: +0.17938 ]
	SubspaceRotationAdjust: set factor to 0.569
ElecMinimize: Iter:  35  F: -206.825407381476623  |grad|_K:  1.037e-05  alpha:  2.659e-03  linmin:  3.320e-07  t[s]:   1857.29
	FillingsUpdate:  mu: +0.052059683  nElectrons: 129.000000  magneticMoment: [ Abs: 0.18251  Tot: +0.17928 ]
	SubspaceRotationAdjust: set factor to 0.573
ElecMinimize: Iter:  36  F: -206.825442396241982  |grad|_K:  1.049e-05  alpha:  2.609e-03  linmin:  3.281e-07  t[s]:   1896.74
	FillingsUpdate:  mu: +0.051695440  nElectrons: 129.000000  magneticMoment: [ Abs: 0.18230  Tot: +0.17909 ]
	SubspaceRotationAdjust: set factor to 0.578
ElecMinimize: Iter:  37  F: -206.825477502480538  |grad|_K:  1.061e-05  alpha:  2.559e-03  linmin:  3.255e-07  t[s]:   1936.26
	FillingsUpdate:  mu: +0.051338776  nElectrons: 129.000000  magneticMoment: [ Abs: 0.18202  Tot: +0.17880 ]
	SubspaceRotationAdjust: set factor to 0.582
ElecMinimize: Iter:  38  F: -206.825512702685586  |grad|_K:  1.073e-05  alpha:  2.508e-03  linmin:  3.242e-07  t[s]:   1974.79
	FillingsUpdate:  mu: +0.050988049  nElectrons: 129.000000  magneticMoment: [ Abs: 0.18168  Tot: +0.17845 ]
	SubspaceRotationAdjust: set factor to 0.587
ElecMinimize: Iter:  39  F: -206.825547994915553  |grad|_K:  1.086e-05  alpha:  2.456e-03  linmin:  3.239e-07  t[s]:   2013.79
	FillingsUpdate:  mu: +0.050641792  nElectrons: 129.000000  magneticMoment: [ Abs: 0.18130  Tot: +0.17804 ]
	SubspaceRotationAdjust: set factor to 0.592
ElecMinimize: Iter:  40  F: -206.825583373121106  |grad|_K:  1.098e-05  alpha:  2.406e-03  linmin:  3.245e-07  t[s]:   2053.71
	FillingsUpdate:  mu: +0.050298729  nElectrons: 129.000000  magneticMoment: [ Abs: 0.18089  Tot: +0.17758 ]
	SubspaceRotationAdjust: set factor to 0.597
ElecMinimize: Iter:  41  F: -206.825618827639744  |grad|_K:  1.111e-05  alpha:  2.355e-03  linmin:  3.259e-07  t[s]:   2093.20
	FillingsUpdate:  mu: +0.049957775  nElectrons: 129.000000  magneticMoment: [ Abs: 0.18048  Tot: +0.17710 ]
	SubspaceRotationAdjust: set factor to 0.601
ElecMinimize: Iter:  42  F: -206.825654345833840  |grad|_K:  1.124e-05  alpha:  2.305e-03  linmin:  3.278e-07  t[s]:   2131.37
	FillingsUpdate:  mu: +0.049618051  nElectrons: 129.000000  magneticMoment: [ Abs: 0.18008  Tot: +0.17662 ]
	SubspaceRotationAdjust: set factor to 0.605
ElecMinimize: Iter:  43  F: -206.825689912872519  |grad|_K:  1.137e-05  alpha:  2.256e-03  linmin:  3.298e-07  t[s]:   2171.02
	FillingsUpdate:  mu: +0.049278890  nElectrons: 129.000000  magneticMoment: [ Abs: 0.17972  Tot: +0.17615 ]
	SubspaceRotationAdjust: set factor to 0.608
ElecMinimize: Iter:  44  F: -206.825725512631095  |grad|_K:  1.149e-05  alpha:  2.209e-03  linmin:  3.318e-07  t[s]:   2209.69
	FillingsUpdate:  mu: +0.048939846  nElectrons: 129.000000  magneticMoment: [ Abs: 0.17940  Tot: +0.17572 ]
	SubspaceRotationAdjust: set factor to 0.611
ElecMinimize: Iter:  45  F: -206.825761128599083  |grad|_K:  1.161e-05  alpha:  2.163e-03  linmin:  3.334e-07  t[s]:   2249.16
	FillingsUpdate:  mu: +0.048600710  nElectrons: 129.000000  magneticMoment: [ Abs: 0.17916  Tot: +0.17534 ]
	SubspaceRotationAdjust: set factor to 0.613
ElecMinimize: Iter:  46  F: -206.825796744711482  |grad|_K:  1.172e-05  alpha:  2.119e-03  linmin:  3.343e-07  t[s]:   2288.59
	FillingsUpdate:  mu: +0.048261512  nElectrons: 129.000000  magneticMoment: [ Abs: 0.17901  Tot: +0.17504 ]
	SubspaceRotationAdjust: set factor to 0.615
ElecMinimize: Iter:  47  F: -206.825832346158251  |grad|_K:  1.183e-05  alpha:  2.077e-03  linmin:  3.342e-07  t[s]:   2327.99
	FillingsUpdate:  mu: +0.047922543  nElectrons: 129.000000  magneticMoment: [ Abs: 0.17895  Tot: +0.17484 ]
	SubspaceRotationAdjust: set factor to 0.616
ElecMinimize: Iter:  48  F: -206.825867919918267  |grad|_K:  1.194e-05  alpha:  2.037e-03  linmin:  3.328e-07  t[s]:   2366.92
	FillingsUpdate:  mu: +0.047584365  nElectrons: 129.000000  magneticMoment: [ Abs: 0.17901  Tot: +0.17476 ]
	SubspaceRotationAdjust: set factor to 0.616
ElecMinimize: Iter:  49  F: -206.825903455326056  |grad|_K:  1.203e-05  alpha:  2.000e-03  linmin:  3.299e-07  t[s]:   2408.60
	FillingsUpdate:  mu: +0.047247832  nElectrons: 129.000000  magneticMoment: [ Abs: 0.17918  Tot: +0.17481 ]
	SubspaceRotationAdjust: set factor to 0.616
ElecMinimize: Iter:  50  F: -206.825938944712590  |grad|_K:  1.212e-05  alpha:  1.965e-03  linmin:  3.250e-07  t[s]:   2447.07
	FillingsUpdate:  mu: +0.046914110  nElectrons: 129.000000  magneticMoment: [ Abs: 0.17945  Tot: +0.17501 ]
	SubspaceRotationAdjust: set factor to 0.615
ElecMinimize: Iter:  51  F: -206.825974384689289  |grad|_K:  1.220e-05  alpha:  1.933e-03  linmin:  3.174e-07  t[s]:   2486.49
	FillingsUpdate:  mu: +0.046584707  nElectrons: 129.000000  magneticMoment: [ Abs: 0.17983  Tot: +0.17536 ]
	SubspaceRotationAdjust: set factor to 0.613
ElecMinimize: Iter:  52  F: -206.826009778395218  |grad|_K:  1.228e-05  alpha:  1.905e-03  linmin:  3.061e-07  t[s]:   2527.12
	FillingsUpdate:  mu: +0.046261507  nElectrons: 129.000000  magneticMoment: [ Abs: 0.18031  Tot: +0.17586 ]
	SubspaceRotationAdjust: set factor to 0.611
ElecMinimize: Iter:  53  F: -206.826045139211601  |grad|_K:  1.235e-05  alpha:  1.880e-03  linmin:  2.894e-07  t[s]:   2566.86
	FillingsUpdate:  mu: +0.045946836  nElectrons: 129.000000  magneticMoment: [ Abs: 0.18085  Tot: +0.17651 ]
	SubspaceRotationAdjust: set factor to 0.609
ElecMinimize: Iter:  54  F: -206.826080495331695  |grad|_K:  1.241e-05  alpha:  1.859e-03  linmin:  2.660e-07  t[s]:   2605.44
	FillingsUpdate:  mu: +0.045643586  nElectrons: 129.000000  magneticMoment: [ Abs: 0.18145  Tot: +0.17727 ]
	SubspaceRotationAdjust: set factor to 0.606
ElecMinimize: Iter:  55  F: -206.826115893774727  |grad|_K:  1.246e-05  alpha:  1.843e-03  linmin:  2.353e-07  t[s]:   2646.01
	FillingsUpdate:  mu: +0.045355416  nElectrons: 129.000000  magneticMoment: [ Abs: 0.18207  Tot: +0.17813 ]
	SubspaceRotationAdjust: set factor to 0.603
ElecMinimize: Iter:  56  F: -206.826151400434128  |grad|_K:  1.250e-05  alpha:  1.833e-03  linmin:  1.998e-07  t[s]:   2686.30
	FillingsUpdate:  mu: +0.045087069  nElectrons: 129.000000  magneticMoment: [ Abs: 0.18268  Tot: +0.17904 ]
	SubspaceRotationAdjust: set factor to 0.6
ElecMinimize: Iter:  57  F: -206.826187090929636  |grad|_K:  1.254e-05  alpha:  1.828e-03  linmin:  1.673e-07  t[s]:   2724.53
	FillingsUpdate:  mu: +0.044844758  nElectrons: 129.000000  magneticMoment: [ Abs: 0.18325  Tot: +0.17996 ]
	SubspaceRotationAdjust: set factor to 0.596
ElecMinimize: Iter:  58  F: -206.826223024834690  |grad|_K:  1.257e-05  alpha:  1.829e-03  linmin:  1.547e-07  t[s]:   2763.64
	FillingsUpdate:  mu: +0.044636438  nElectrons: 129.000000  magneticMoment: [ Abs: 0.18372  Tot: +0.18081 ]
	SubspaceRotationAdjust: set factor to 0.591
ElecMinimize: Iter:  59  F: -206.826259196221571  |grad|_K:  1.259e-05  alpha:  1.832e-03  linmin:  1.895e-07  t[s]:   2804.52
	FillingsUpdate:  mu: +0.044471515  nElectrons: 129.000000  magneticMoment: [ Abs: 0.18403  Tot: +0.18153 ]
	SubspaceRotationAdjust: set factor to 0.587
ElecMinimize: Iter:  60  F: -206.826295462140706  |grad|_K:  1.261e-05  alpha:  1.830e-03  linmin:  3.033e-07  t[s]:   2842.39
	FillingsUpdate:  mu: +0.044359355  nElectrons: 129.000000  magneticMoment: [ Abs: 0.18414  Tot: +0.18203 ]
	SubspaceRotationAdjust: set factor to 0.582
ElecMinimize: Iter:  61  F: -206.826331478321663  |grad|_K:  1.263e-05  alpha:  1.814e-03  linmin:  5.106e-07  t[s]:   2882.33
	FillingsUpdate:  mu: +0.044306401  nElectrons: 129.000000  magneticMoment: [ Abs: 0.18400  Tot: +0.18225 ]
	SubspaceRotationAdjust: set factor to 0.576
ElecMinimize: Iter:  62  F: -206.826366709712715  |grad|_K:  1.263e-05  alpha:  1.774e-03  linmin:  7.793e-07  t[s]:   2922.17
	FillingsUpdate:  mu: +0.044313190  nElectrons: 129.000000  magneticMoment: [ Abs: 0.18358  Tot: +0.18215 ]
	SubspaceRotationAdjust: set factor to 0.571
ElecMinimize: Iter:  63  F: -206.826400568520796  |grad|_K:  1.263e-05  alpha:  1.707e-03  linmin:  1.035e-06  t[s]:   2960.83
	FillingsUpdate:  mu: +0.044373710  nElectrons: 129.000000  magneticMoment: [ Abs: 0.18289  Tot: +0.18172 ]
	SubspaceRotationAdjust: set factor to 0.567
ElecMinimize: Iter:  64  F: -206.826432611751500  |grad|_K:  1.262e-05  alpha:  1.619e-03  linmin:  1.213e-06  t[s]:   3001.08
	FillingsUpdate:  mu: +0.044477712  nElectrons: 129.000000  magneticMoment: [ Abs: 0.18196  Tot: +0.18100 ]
	SubspaceRotationAdjust: set factor to 0.563
ElecMinimize: Iter:  65  F: -206.826462644967961  |grad|_K:  1.260e-05  alpha:  1.521e-03  linmin:  1.299e-06  t[s]:   3041.27
	FillingsUpdate:  mu: +0.044613933  nElectrons: 129.000000  magneticMoment: [ Abs: 0.18082  Tot: +0.18002 ]
	SubspaceRotationAdjust: set factor to 0.56
ElecMinimize: Iter:  66  F: -206.826490688273395  |grad|_K:  1.258e-05  alpha:  1.425e-03  linmin:  1.312e-06  t[s]:   3079.47
	FillingsUpdate:  mu: +0.044772268  nElectrons: 129.000000  magneticMoment: [ Abs: 0.17951  Tot: +0.17883 ]
	SubspaceRotationAdjust: set factor to 0.557
ElecMinimize: Iter:  67  F: -206.826516886269559  |grad|_K:  1.255e-05  alpha:  1.336e-03  linmin:  1.279e-06  t[s]:   3118.79
	FillingsUpdate:  mu: +0.044944565  nElectrons: 129.000000  magneticMoment: [ Abs: 0.17808  Tot: +0.17747 ]
	SubspaceRotationAdjust: set factor to 0.556
ElecMinimize: Iter:  68  F: -206.826541431393878  |grad|_K:  1.253e-05  alpha:  1.256e-03  linmin:  1.221e-06  t[s]:   3159.51
	FillingsUpdate:  mu: +0.045124599  nElectrons: 129.000000  magneticMoment: [ Abs: 0.17654  Tot: +0.17599 ]
	SubspaceRotationAdjust: set factor to 0.555
ElecMinimize: Iter:  69  F: -206.826564517918030  |grad|_K:  1.250e-05  alpha:  1.186e-03  linmin:  1.152e-06  t[s]:   3197.85
	FillingsUpdate:  mu: +0.045307734  nElectrons: 129.000000  magneticMoment: [ Abs: 0.17493  Tot: +0.17442 ]
	SubspaceRotationAdjust: set factor to 0.555
ElecMinimize: Iter:  70  F: -206.826586320770048  |grad|_K:  1.246e-05  alpha:  1.125e-03  linmin:  1.083e-06  t[s]:   3236.95
	FillingsUpdate:  mu: +0.045490542  nElectrons: 129.000000  magneticMoment: [ Abs: 0.17327  Tot: +0.17279 ]
	SubspaceRotationAdjust: set factor to 0.556
ElecMinimize: Iter:  71  F: -206.826606989052664  |grad|_K:  1.243e-05  alpha:  1.071e-03  linmin:  1.019e-06  t[s]:   3276.53
	FillingsUpdate:  mu: +0.045670494  nElectrons: 129.000000  magneticMoment: [ Abs: 0.17159  Tot: +0.17112 ]
	SubspaceRotationAdjust: set factor to 0.557
ElecMinimize: Iter:  72  F: -206.826626646690812  |grad|_K:  1.240e-05  alpha:  1.023e-03  linmin:  9.609e-07  t[s]:   3316.38
	FillingsUpdate:  mu: +0.045845724  nElectrons: 129.000000  magneticMoment: [ Abs: 0.16989  Tot: +0.16944 ]
	SubspaceRotationAdjust: set factor to 0.559
ElecMinimize: Iter:  73  F: -206.826645395884384  |grad|_K:  1.237e-05  alpha:  9.805e-04  linmin:  9.109e-07  t[s]:   3355.76
	FillingsUpdate:  mu: +0.046014859  nElectrons: 129.000000  magneticMoment: [ Abs: 0.16821  Tot: +0.16776 ]
	SubspaceRotationAdjust: set factor to 0.561
ElecMinimize: Iter:  74  F: -206.826663321059840  |grad|_K:  1.233e-05  alpha:  9.420e-04  linmin:  8.684e-07  t[s]:   3396.36
	FillingsUpdate:  mu: +0.046176899  nElectrons: 129.000000  magneticMoment: [ Abs: 0.16656  Tot: +0.16610 ]
	SubspaceRotationAdjust: set factor to 0.563
ElecMinimize: Iter:  75  F: -206.826680492690286  |grad|_K:  1.230e-05  alpha:  9.071e-04  linmin:  8.328e-07  t[s]:   3436.69
	FillingsUpdate:  mu: +0.046331128  nElectrons: 129.000000  magneticMoment: [ Abs: 0.16494  Tot: +0.16448 ]
	SubspaceRotationAdjust: set factor to 0.566
ElecMinimize: Iter:  76  F: -206.826696970368715  |grad|_K:  1.226e-05  alpha:  8.750e-04  linmin:  8.029e-07  t[s]:   3476.00
	FillingsUpdate:  mu: +0.046477055  nElectrons: 129.000000  magneticMoment: [ Abs: 0.16337  Tot: +0.16290 ]
	SubspaceRotationAdjust: set factor to 0.569
ElecMinimize: Iter:  77  F: -206.826712805380708  |grad|_K:  1.223e-05  alpha:  8.454e-04  linmin:  7.777e-07  t[s]:   3513.56
	FillingsUpdate:  mu: +0.046614359  nElectrons: 129.000000  magneticMoment: [ Abs: 0.16185  Tot: +0.16137 ]
	SubspaceRotationAdjust: set factor to 0.572
ElecMinimize: Iter:  78  F: -206.826728042583852  |grad|_K:  1.219e-05  alpha:  8.179e-04  linmin:  7.560e-07  t[s]:   3553.24
	FillingsUpdate:  mu: +0.046742861  nElectrons: 129.000000  magneticMoment: [ Abs: 0.16039  Tot: +0.15991 ]
	SubspaceRotationAdjust: set factor to 0.576
ElecMinimize: Iter:  79  F: -206.826742721918379  |grad|_K:  1.215e-05  alpha:  7.924e-04  linmin:  7.366e-07  t[s]:   3593.23
	FillingsUpdate:  mu: +0.046862489  nElectrons: 129.000000  magneticMoment: [ Abs: 0.15901  Tot: +0.15851 ]
	SubspaceRotationAdjust: set factor to 0.58
ElecMinimize: Iter:  80  F: -206.826756879496799  |grad|_K:  1.212e-05  alpha:  7.685e-04  linmin:  7.185e-07  t[s]:   3632.67
	FillingsUpdate:  mu: +0.046973256  nElectrons: 129.000000  magneticMoment: [ Abs: 0.15768  Tot: +0.15718 ]
	SubspaceRotationAdjust: set factor to 0.583
ElecMinimize: Iter:  81  F: -206.826770548371002  |grad|_K:  1.208e-05  alpha:  7.462e-04  linmin:  7.005e-07  t[s]:   3671.12
	FillingsUpdate:  mu: +0.047075243  nElectrons: 129.000000  magneticMoment: [ Abs: 0.15643  Tot: +0.15592 ]
	SubspaceRotationAdjust: set factor to 0.587
ElecMinimize: Iter:  82  F: -206.826783759191983  |grad|_K:  1.205e-05  alpha:  7.254e-04  linmin:  6.818e-07  t[s]:   3711.27
	FillingsUpdate:  mu: +0.047168581  nElectrons: 129.000000  magneticMoment: [ Abs: 0.15525  Tot: +0.15472 ]
	SubspaceRotationAdjust: set factor to 0.591
ElecMinimize: Iter:  83  F: -206.826796540567244  |grad|_K:  1.201e-05  alpha:  7.058e-04  linmin:  6.615e-07  t[s]:   3753.18
	FillingsUpdate:  mu: +0.047253440  nElectrons: 129.000000  magneticMoment: [ Abs: 0.15413  Tot: +0.15360 ]
	SubspaceRotationAdjust: set factor to 0.595
ElecMinimize: Iter:  84  F: -206.826808919402367  |grad|_K:  1.198e-05  alpha:  6.875e-04  linmin:  6.386e-07  t[s]:   3793.24
	FillingsUpdate:  mu: +0.047330018  nElectrons: 129.000000  magneticMoment: [ Abs: 0.15307  Tot: +0.15253 ]
	SubspaceRotationAdjust: set factor to 0.599
ElecMinimize: Iter:  85  F: -206.826820921158202  |grad|_K:  1.194e-05  alpha:  6.704e-04  linmin:  6.126e-07  t[s]:   3831.23
	FillingsUpdate:  mu: +0.047398528  nElectrons: 129.000000  magneticMoment: [ Abs: 0.15208  Tot: +0.15153 ]
	SubspaceRotationAdjust: set factor to 0.603
ElecMinimize: Iter:  86  F: -206.826832569951222  |grad|_K:  1.191e-05  alpha:  6.544e-04  linmin:  5.830e-07  t[s]:   3870.43
	FillingsUpdate:  mu: +0.047459198  nElectrons: 129.000000  magneticMoment: [ Abs: 0.15114  Tot: +0.15059 ]
	SubspaceRotationAdjust: set factor to 0.607
ElecMinimize: Iter:  87  F: -206.826843888737272  |grad|_K:  1.187e-05  alpha:  6.395e-04  linmin:  5.495e-07  t[s]:   3910.25
	FillingsUpdate:  mu: +0.047512259  nElectrons: 129.000000  magneticMoment: [ Abs: 0.15026  Tot: +0.14970 ]
	SubspaceRotationAdjust: set factor to 0.612
ElecMinimize: Iter:  88  F: -206.826854899376002  |grad|_K:  1.184e-05  alpha:  6.256e-04  linmin:  5.121e-07  t[s]:   3950.21
	FillingsUpdate:  mu: +0.047557942  nElectrons: 129.000000  magneticMoment: [ Abs: 0.14943  Tot: +0.14887 ]
	SubspaceRotationAdjust: set factor to 0.616
ElecMinimize: Iter:  89  F: -206.826865622724995  |grad|_K:  1.180e-05  alpha:  6.127e-04  linmin:  4.712e-07  t[s]:   3988.40
	FillingsUpdate:  mu: +0.047596473  nElectrons: 129.000000  magneticMoment: [ Abs: 0.14864  Tot: +0.14808 ]
	SubspaceRotationAdjust: set factor to 0.62
ElecMinimize: Iter:  90  F: -206.826876078692067  |grad|_K:  1.177e-05  alpha:  6.008e-04  linmin:  4.273e-07  t[s]:   4028.38
	FillingsUpdate:  mu: +0.047628073  nElectrons: 129.000000  magneticMoment: [ Abs: 0.14790  Tot: +0.14733 ]
	SubspaceRotationAdjust: set factor to 0.624
ElecMinimize: Iter:  91  F: -206.826886286316267  |grad|_K:  1.174e-05  alpha:  5.898e-04  linmin:  3.813e-07  t[s]:   4066.75
	FillingsUpdate:  mu: +0.047652950  nElectrons: 129.000000  magneticMoment: [ Abs: 0.14719  Tot: +0.14662 ]
	SubspaceRotationAdjust: set factor to 0.628
ElecMinimize: Iter:  92  F: -206.826896263770891  |grad|_K:  1.170e-05  alpha:  5.796e-04  linmin:  3.339e-07  t[s]:   4107.38
	FillingsUpdate:  mu: +0.047671302  nElectrons: 129.000000  magneticMoment: [ Abs: 0.14651  Tot: +0.14594 ]
	SubspaceRotationAdjust: set factor to 0.632
ElecMinimize: Iter:  93  F: -206.826906028482085  |grad|_K:  1.167e-05  alpha:  5.703e-04  linmin:  2.863e-07  t[s]:   4147.29
	FillingsUpdate:  mu: +0.047683314  nElectrons: 129.000000  magneticMoment: [ Abs: 0.14586  Tot: +0.14530 ]
	SubspaceRotationAdjust: set factor to 0.636
ElecMinimize: Iter:  94  F: -206.826915597100538  |grad|_K:  1.164e-05  alpha:  5.618e-04  linmin:  2.392e-07  t[s]:   4185.66
	FillingsUpdate:  mu: +0.047689155  nElectrons: 129.000000  magneticMoment: [ Abs: 0.14524  Tot: +0.14468 ]
	SubspaceRotationAdjust: set factor to 0.64
ElecMinimize: Iter:  95  F: -206.826924985601437  |grad|_K:  1.161e-05  alpha:  5.541e-04  linmin:  1.935e-07  t[s]:   4224.94
	FillingsUpdate:  mu: +0.047688980  nElectrons: 129.000000  magneticMoment: [ Abs: 0.14463  Tot: +0.14407 ]
	SubspaceRotationAdjust: set factor to 0.643
ElecMinimize: Iter:  96  F: -206.826934209302806  |grad|_K:  1.158e-05  alpha:  5.472e-04  linmin:  1.498e-07  t[s]:   4263.91
	FillingsUpdate:  mu: +0.047682927  nElectrons: 129.000000  magneticMoment: [ Abs: 0.14405  Tot: +0.14349 ]
	SubspaceRotationAdjust: set factor to 0.647
ElecMinimize: Iter:  97  F: -206.826943282896849  |grad|_K:  1.155e-05  alpha:  5.410e-04  linmin:  1.082e-07  t[s]:   4302.99
	FillingsUpdate:  mu: +0.047671118  nElectrons: 129.000000  magneticMoment: [ Abs: 0.14347  Tot: +0.14292 ]
	SubspaceRotationAdjust: set factor to 0.651
ElecMinimize: Iter:  98  F: -206.826952220529961  |grad|_K:  1.152e-05  alpha:  5.356e-04  linmin:  6.925e-08  t[s]:   4342.85
	FillingsUpdate:  mu: +0.047653660  nElectrons: 129.000000  magneticMoment: [ Abs: 0.14290  Tot: +0.14235 ]
	SubspaceRotationAdjust: set factor to 0.654
ElecMinimize: Iter:  99  F: -206.826961035792181  |grad|_K:  1.149e-05  alpha:  5.308e-04  linmin:  3.297e-08  t[s]:   4383.61
	FillingsUpdate:  mu: +0.047630643  nElectrons: 129.000000  magneticMoment: [ Abs: 0.14234  Tot: +0.14179 ]
	SubspaceRotationAdjust: set factor to 0.658
ElecMinimize: Iter: 100  F: -206.826969741787195  |grad|_K:  1.146e-05  alpha:  5.268e-04  linmin: -6.969e-10  t[s]:   4417.92
	FillingsUpdate:  mu: +0.047602141  nElectrons: 129.000000  magneticMoment: [ Abs: 0.14178  Tot: +0.14124 ]
	SubspaceRotationAdjust: set factor to 0.661
ElecMinimize: Iter: 101  F: -206.826978351152235  |grad|_K:  1.144e-05  alpha:  5.234e-04  linmin: -3.164e-08  t[s]:   4457.18
	FillingsUpdate:  mu: +0.047568214  nElectrons: 129.000000  magneticMoment: [ Abs: 0.14121  Tot: +0.14067 ]
	SubspaceRotationAdjust: set factor to 0.665
ElecMinimize: Iter: 102  F: -206.826986876078337  |grad|_K:  1.141e-05  alpha:  5.207e-04  linmin: -6.005e-08  t[s]:   4496.29
	FillingsUpdate:  mu: +0.047528903  nElectrons: 129.000000  magneticMoment: [ Abs: 0.14064  Tot: +0.14011 ]
	SubspaceRotationAdjust: set factor to 0.668
ElecMinimize: Iter: 103  F: -206.826995328345248  |grad|_K:  1.138e-05  alpha:  5.186e-04  linmin: -8.608e-08  t[s]:   4535.05
	FillingsUpdate:  mu: +0.047484239  nElectrons: 129.000000  magneticMoment: [ Abs: 0.14006  Tot: +0.13953 ]
	SubspaceRotationAdjust: set factor to 0.671
ElecMinimize: Iter: 104  F: -206.827003719356298  |grad|_K:  1.136e-05  alpha:  5.171e-04  linmin: -1.097e-07  t[s]:   4574.25
	FillingsUpdate:  mu: +0.047434236  nElectrons: 129.000000  magneticMoment: [ Abs: 0.13947  Tot: +0.13894 ]
	SubspaceRotationAdjust: set factor to 0.674
ElecMinimize: Iter: 105  F: -206.827012060117539  |grad|_K:  1.133e-05  alpha:  5.163e-04  linmin: -1.312e-07  t[s]:   4614.32
	FillingsUpdate:  mu: +0.047378895  nElectrons: 129.000000  magneticMoment: [ Abs: 0.13886  Tot: +0.13834 ]
	SubspaceRotationAdjust: set factor to 0.677
ElecMinimize: Iter: 106  F: -206.827020361274180  |grad|_K:  1.131e-05  alpha:  5.160e-04  linmin: -1.505e-07  t[s]:   4654.45
	FillingsUpdate:  mu: +0.047318205  nElectrons: 129.000000  magneticMoment: [ Abs: 0.13823  Tot: +0.13772 ]
	SubspaceRotationAdjust: set factor to 0.68
ElecMinimize: Iter: 107  F: -206.827028633111581  |grad|_K:  1.128e-05  alpha:  5.164e-04  linmin: -1.679e-07  t[s]:   4692.96
	FillingsUpdate:  mu: +0.047252145  nElectrons: 129.000000  magneticMoment: [ Abs: 0.13759  Tot: +0.13707 ]
	SubspaceRotationAdjust: set factor to 0.683
ElecMinimize: Iter: 108  F: -206.827036885537012  |grad|_K:  1.126e-05  alpha:  5.173e-04  linmin: -1.834e-07  t[s]:   4732.42
	FillingsUpdate:  mu: +0.047180683  nElectrons: 129.000000  magneticMoment: [ Abs: 0.13692  Tot: +0.13640 ]
	SubspaceRotationAdjust: set factor to 0.686
ElecMinimize: Iter: 109  F: -206.827045128084251  |grad|_K:  1.124e-05  alpha:  5.187e-04  linmin: -1.970e-07  t[s]:   4771.80
	FillingsUpdate:  mu: +0.047103777  nElectrons: 129.000000  magneticMoment: [ Abs: 0.13622  Tot: +0.13570 ]
	SubspaceRotationAdjust: set factor to 0.688
ElecMinimize: Iter: 110  F: -206.827053369884993  |grad|_K:  1.122e-05  alpha:  5.207e-04  linmin: -2.087e-07  t[s]:   4810.55
	FillingsUpdate:  mu: +0.047021380  nElectrons: 129.000000  magneticMoment: [ Abs: 0.13549  Tot: +0.13497 ]
	SubspaceRotationAdjust: set factor to 0.691
ElecMinimize: Iter: 111  F: -206.827061619618803  |grad|_K:  1.119e-05  alpha:  5.231e-04  linmin: -2.188e-07  t[s]:   4849.11
	FillingsUpdate:  mu: +0.046933441  nElectrons: 129.000000  magneticMoment: [ Abs: 0.13473  Tot: +0.13421 ]
	SubspaceRotationAdjust: set factor to 0.694
ElecMinimize: Iter: 112  F: -206.827069885513936  |grad|_K:  1.117e-05  alpha:  5.261e-04  linmin: -2.269e-07  t[s]:   4887.75
	FillingsUpdate:  mu: +0.046839903  nElectrons: 129.000000  magneticMoment: [ Abs: 0.13394  Tot: +0.13341 ]
	SubspaceRotationAdjust: set factor to 0.696
ElecMinimize: Iter: 113  F: -206.827078175250392  |grad|_K:  1.115e-05  alpha:  5.295e-04  linmin: -2.334e-07  t[s]:   4926.85
	FillingsUpdate:  mu: +0.046740712  nElectrons: 129.000000  magneticMoment: [ Abs: 0.13310  Tot: +0.13257 ]
	SubspaceRotationAdjust: set factor to 0.699
ElecMinimize: Iter: 114  F: -206.827086495936328  |grad|_K:  1.113e-05  alpha:  5.333e-04  linmin: -2.380e-07  t[s]:   4966.77
	FillingsUpdate:  mu: +0.046635816  nElectrons: 129.000000  magneticMoment: [ Abs: 0.13223  Tot: +0.13169 ]
	SubspaceRotationAdjust: set factor to 0.702
ElecMinimize: Iter: 115  F: -206.827094854026370  |grad|_K:  1.112e-05  alpha:  5.375e-04  linmin: -2.409e-07  t[s]:   5005.32
	FillingsUpdate:  mu: +0.046525167  nElectrons: 129.000000  magneticMoment: [ Abs: 0.13132  Tot: +0.13077 ]
	SubspaceRotationAdjust: set factor to 0.704
ElecMinimize: Iter: 116  F: -206.827103255255622  |grad|_K:  1.110e-05  alpha:  5.420e-04  linmin: -2.418e-07  t[s]:   5043.88
	FillingsUpdate:  mu: +0.046408727  nElectrons: 129.000000  magneticMoment: [ Abs: 0.13037  Tot: +0.12981 ]
	SubspaceRotationAdjust: set factor to 0.707
ElecMinimize: Iter: 117  F: -206.827111704536520  |grad|_K:  1.108e-05  alpha:  5.468e-04  linmin: -2.410e-07  t[s]:   5083.46
	FillingsUpdate:  mu: +0.046286469  nElectrons: 129.000000  magneticMoment: [ Abs: 0.12938  Tot: +0.12880 ]
	SubspaceRotationAdjust: set factor to 0.71
ElecMinimize: Iter: 118  F: -206.827120205948262  |grad|_K:  1.107e-05  alpha:  5.518e-04  linmin: -2.384e-07  t[s]:   5122.82
	FillingsUpdate:  mu: +0.046158383  nElectrons: 129.000000  magneticMoment: [ Abs: 0.12834  Tot: +0.12774 ]
	SubspaceRotationAdjust: set factor to 0.712
ElecMinimize: Iter: 119  F: -206.827128762597681  |grad|_K:  1.105e-05  alpha:  5.570e-04  linmin: -2.340e-07  t[s]:   5161.44
	FillingsUpdate:  mu: +0.046024476  nElectrons: 129.000000  magneticMoment: [ Abs: 0.12726  Tot: +0.12664 ]
	SubspaceRotationAdjust: set factor to 0.715
ElecMinimize: Iter: 120  F: -206.827137376610693  |grad|_K:  1.104e-05  alpha:  5.622e-04  linmin: -2.280e-07  t[s]:   5199.85
	FillingsUpdate:  mu: +0.045884774  nElectrons: 129.000000  magneticMoment: [ Abs: 0.12613  Tot: +0.12550 ]
	SubspaceRotationAdjust: set factor to 0.718
ElecMinimize: Iter: 121  F: -206.827146049098531  |grad|_K:  1.102e-05  alpha:  5.675e-04  linmin: -2.202e-07  t[s]:   5239.44
	FillingsUpdate:  mu: +0.045739327  nElectrons: 129.000000  magneticMoment: [ Abs: 0.12497  Tot: +0.12431 ]
	SubspaceRotationAdjust: set factor to 0.721
ElecMinimize: Iter: 122  F: -206.827154780092059  |grad|_K:  1.101e-05  alpha:  5.727e-04  linmin: -2.111e-07  t[s]:   5278.43
	FillingsUpdate:  mu: +0.045588210  nElectrons: 129.000000  magneticMoment: [ Abs: 0.12376  Tot: +0.12307 ]
	SubspaceRotationAdjust: set factor to 0.724
ElecMinimize: Iter: 123  F: -206.827163568647450  |grad|_K:  1.100e-05  alpha:  5.778e-04  linmin: -2.007e-07  t[s]:   5317.13
	FillingsUpdate:  mu: +0.045431518  nElectrons: 129.000000  magneticMoment: [ Abs: 0.12252  Tot: +0.12180 ]
	SubspaceRotationAdjust: set factor to 0.727
ElecMinimize: Iter: 124  F: -206.827172412857806  |grad|_K:  1.099e-05  alpha:  5.826e-04  linmin: -1.892e-07  t[s]:   5355.19
	FillingsUpdate:  mu: +0.045269373  nElectrons: 129.000000  magneticMoment: [ Abs: 0.12124  Tot: +0.12050 ]
	SubspaceRotationAdjust: set factor to 0.73
ElecMinimize: Iter: 125  F: -206.827181309953573  |grad|_K:  1.098e-05  alpha:  5.873e-04  linmin: -1.769e-07  t[s]:   5394.24
	FillingsUpdate:  mu: +0.045101913  nElectrons: 129.000000  magneticMoment: [ Abs: 0.11993  Tot: +0.11915 ]
	SubspaceRotationAdjust: set factor to 0.734
ElecMinimize: Iter: 126  F: -206.827190256447210  |grad|_K:  1.097e-05  alpha:  5.915e-04  linmin: -1.640e-07  t[s]:   5433.85
	FillingsUpdate:  mu: +0.044929295  nElectrons: 129.000000  magneticMoment: [ Abs: 0.11859  Tot: +0.11779 ]
	SubspaceRotationAdjust: set factor to 0.737
ElecMinimize: Iter: 127  F: -206.827199248311501  |grad|_K:  1.097e-05  alpha:  5.955e-04  linmin: -1.508e-07  t[s]:   5472.98
	FillingsUpdate:  mu: +0.044751689  nElectrons: 129.000000  magneticMoment: [ Abs: 0.11724  Tot: +0.11640 ]
	SubspaceRotationAdjust: set factor to 0.741
ElecMinimize: Iter: 128  F: -206.827208281178628  |grad|_K:  1.096e-05  alpha:  5.990e-04  linmin: -1.377e-07  t[s]:   5511.66
	FillingsUpdate:  mu: +0.044569268  nElectrons: 129.000000  magneticMoment: [ Abs: 0.11587  Tot: +0.11500 ]
	SubspaceRotationAdjust: set factor to 0.744
ElecMinimize: Iter: 129  F: -206.827217350533317  |grad|_K:  1.096e-05  alpha:  6.021e-04  linmin: -1.248e-07  t[s]:   5551.06
	FillingsUpdate:  mu: +0.044382212  nElectrons: 129.000000  magneticMoment: [ Abs: 0.11449  Tot: +0.11359 ]
	SubspaceRotationAdjust: set factor to 0.748
ElecMinimize: Iter: 130  F: -206.827226451955511  |grad|_K:  1.095e-05  alpha:  6.048e-04  linmin: -1.124e-07  t[s]:   5590.74
	FillingsUpdate:  mu: +0.044190690  nElectrons: 129.000000  magneticMoment: [ Abs: 0.11311  Tot: +0.11218 ]
	SubspaceRotationAdjust: set factor to 0.751
ElecMinimize: Iter: 131  F: -206.827235581291490  |grad|_K:  1.095e-05  alpha:  6.071e-04  linmin: -1.006e-07  t[s]:   5629.60
	FillingsUpdate:  mu: +0.043994866  nElectrons: 129.000000  magneticMoment: [ Abs: 0.11174  Tot: +0.11078 ]
	SubspaceRotationAdjust: set factor to 0.755
ElecMinimize: Iter: 132  F: -206.827244734851774  |grad|_K:  1.095e-05  alpha:  6.090e-04  linmin: -8.971e-08  t[s]:   5667.73
	FillingsUpdate:  mu: +0.043794887  nElectrons: 129.000000  magneticMoment: [ Abs: 0.11038  Tot: +0.10940 ]
	SubspaceRotationAdjust: set factor to 0.758
ElecMinimize: Iter: 133  F: -206.827253909534363  |grad|_K:  1.095e-05  alpha:  6.106e-04  linmin: -7.971e-08  t[s]:   5706.62
	FillingsUpdate:  mu: +0.043590882  nElectrons: 129.000000  magneticMoment: [ Abs: 0.10905  Tot: +0.10805 ]
	SubspaceRotationAdjust: set factor to 0.762
ElecMinimize: Iter: 134  F: -206.827263102909313  |grad|_K:  1.095e-05  alpha:  6.118e-04  linmin: -7.061e-08  t[s]:   5746.78
	FillingsUpdate:  mu: +0.043382962  nElectrons: 129.000000  magneticMoment: [ Abs: 0.10775  Tot: +0.10674 ]
	SubspaceRotationAdjust: set factor to 0.765
ElecMinimize: Iter: 135  F: -206.827272313242645  |grad|_K:  1.095e-05  alpha:  6.129e-04  linmin: -6.240e-08  t[s]:   5786.31
	FillingsUpdate:  mu: +0.043171219  nElectrons: 129.000000  magneticMoment: [ Abs: 0.10650  Tot: +0.10549 ]
	SubspaceRotationAdjust: set factor to 0.768
ElecMinimize: Iter: 136  F: -206.827281539436740  |grad|_K:  1.096e-05  alpha:  6.138e-04  linmin: -5.500e-08  t[s]:   5824.79
	FillingsUpdate:  mu: +0.042955725  nElectrons: 129.000000  magneticMoment: [ Abs: 0.10531  Tot: +0.10429 ]
	SubspaceRotationAdjust: set factor to 0.771
ElecMinimize: Iter: 137  F: -206.827290780954883  |grad|_K:  1.096e-05  alpha:  6.145e-04  linmin: -4.823e-08  t[s]:   5863.05
	FillingsUpdate:  mu: +0.042736544  nElectrons: 129.000000  magneticMoment: [ Abs: 0.10419  Tot: +0.10318 ]
	SubspaceRotationAdjust: set factor to 0.773
ElecMinimize: Iter: 138  F: -206.827300037590135  |grad|_K:  1.097e-05  alpha:  6.151e-04  linmin: -4.191e-08  t[s]:   5901.53
	FillingsUpdate:  mu: +0.042513732  nElectrons: 129.000000  magneticMoment: [ Abs: 0.10315  Tot: +0.10215 ]
	SubspaceRotationAdjust: set factor to 0.776
ElecMinimize: Iter: 139  F: -206.827309309257345  |grad|_K:  1.097e-05  alpha:  6.156e-04  linmin: -3.582e-08  t[s]:   5941.32
	FillingsUpdate:  mu: +0.042287348  nElectrons: 129.000000  magneticMoment: [ Abs: 0.10220  Tot: +0.10122 ]
	SubspaceRotationAdjust: set factor to 0.778
ElecMinimize: Iter: 140  F: -206.827318595664678  |grad|_K:  1.098e-05  alpha:  6.160e-04  linmin: -2.959e-08  t[s]:   5979.75
	FillingsUpdate:  mu: +0.042057469  nElectrons: 129.000000  magneticMoment: [ Abs: 0.10137  Tot: +0.10041 ]
	SubspaceRotationAdjust: set factor to 0.78
ElecMinimize: Iter: 141  F: -206.827327895897355  |grad|_K:  1.098e-05  alpha:  6.163e-04  linmin: -2.303e-08  t[s]:   6018.52
	FillingsUpdate:  mu: +0.041824199  nElectrons: 129.000000  magneticMoment: [ Abs: 0.10065  Tot: +0.09973 ]
	SubspaceRotationAdjust: set factor to 0.781
ElecMinimize: Iter: 142  F: -206.827337208078802  |grad|_K:  1.099e-05  alpha:  6.164e-04  linmin: -1.576e-08  t[s]:   6058.62
	FillingsUpdate:  mu: +0.041587685  nElectrons: 129.000000  magneticMoment: [ Abs: 0.10007  Tot: +0.09918 ]
	SubspaceRotationAdjust: set factor to 0.782
ElecMinimize: Iter: 143  F: -206.827346528848437  |grad|_K:  1.100e-05  alpha:  6.163e-04  linmin: -7.447e-09  t[s]:   6097.54
	FillingsUpdate:  mu: +0.041348134  nElectrons: 129.000000  magneticMoment: [ Abs: 0.09963  Tot: +0.09879 ]
	SubspaceRotationAdjust: set factor to 0.783
ElecMinimize: Iter: 144  F: -206.827355852937728  |grad|_K:  1.100e-05  alpha:  6.158e-04  linmin:  2.096e-09  t[s]:   6135.73
	FillingsUpdate:  mu: +0.041105829  nElectrons: 129.000000  magneticMoment: [ Abs: 0.09936  Tot: +0.09856 ]
	SubspaceRotationAdjust: set factor to 0.784
ElecMinimize: Iter: 145  F: -206.827365172793577  |grad|_K:  1.101e-05  alpha:  6.149e-04  linmin:  1.315e-08  t[s]:   6175.10
	FillingsUpdate:  mu: +0.040861139  nElectrons: 129.000000  magneticMoment: [ Abs: 0.09926  Tot: +0.09851 ]
	SubspaceRotationAdjust: set factor to 0.785
ElecMinimize: Iter: 146  F: -206.827374478225948  |grad|_K:  1.102e-05  alpha:  6.133e-04  linmin:  2.585e-08  t[s]:   6215.12
	FillingsUpdate:  mu: +0.040614529  nElectrons: 129.000000  magneticMoment: [ Abs: 0.09935  Tot: +0.09863 ]
	SubspaceRotationAdjust: set factor to 0.785
ElecMinimize: Iter: 147  F: -206.827383756260645  |grad|_K:  1.102e-05  alpha:  6.109e-04  linmin:  4.019e-08  t[s]:   6253.73
	FillingsUpdate:  mu: +0.040366564  nElectrons: 129.000000  magneticMoment: [ Abs: 0.09963  Tot: +0.09893 ]
	SubspaceRotationAdjust: set factor to 0.785
ElecMinimize: Iter: 148  F: -206.827392991174833  |grad|_K:  1.103e-05  alpha:  6.076e-04  linmin:  5.604e-08  t[s]:   6292.40
	FillingsUpdate:  mu: +0.040117904  nElectrons: 129.000000  magneticMoment: [ Abs: 0.10010  Tot: +0.09942 ]
	SubspaceRotationAdjust: set factor to 0.786
ElecMinimize: Iter: 149  F: -206.827402164813947  |grad|_K:  1.103e-05  alpha:  6.031e-04  linmin:  7.306e-08  t[s]:   6331.19
	FillingsUpdate:  mu: +0.039869287  nElectrons: 129.000000  magneticMoment: [ Abs: 0.10077  Tot: +0.10009 ]
	SubspaceRotationAdjust: set factor to 0.786
ElecMinimize: Iter: 150  F: -206.827411257186043  |grad|_K:  1.104e-05  alpha:  5.974e-04  linmin:  9.078e-08  t[s]:   6370.01
	FillingsUpdate:  mu: +0.039621507  nElectrons: 129.000000  magneticMoment: [ Abs: 0.10163  Tot: +0.10094 ]
	SubspaceRotationAdjust: set factor to 0.786
ElecMinimize: Iter: 151  F: -206.827420247365581  |grad|_K:  1.104e-05  alpha:  5.905e-04  linmin:  1.085e-07  t[s]:   6408.63
	FillingsUpdate:  mu: +0.039375381  nElectrons: 129.000000  magneticMoment: [ Abs: 0.10265  Tot: +0.10195 ]
	SubspaceRotationAdjust: set factor to 0.787
ElecMinimize: Iter: 152  F: -206.827429114602410  |grad|_K:  1.104e-05  alpha:  5.822e-04  linmin:  1.255e-07  t[s]:   6447.82
	FillingsUpdate:  mu: +0.039131712  nElectrons: 129.000000  magneticMoment: [ Abs: 0.10383  Tot: +0.10312 ]
	SubspaceRotationAdjust: set factor to 0.787
ElecMinimize: Iter: 153  F: -206.827437839593756  |grad|_K:  1.105e-05  alpha:  5.728e-04  linmin:  1.410e-07  t[s]:   6486.18
	FillingsUpdate:  mu: +0.038891252  nElectrons: 129.000000  magneticMoment: [ Abs: 0.10514  Tot: +0.10442 ]
	SubspaceRotationAdjust: set factor to 0.788
ElecMinimize: Iter: 154  F: -206.827446405574108  |grad|_K:  1.105e-05  alpha:  5.623e-04  linmin:  1.543e-07  t[s]:   6525.32
	FillingsUpdate:  mu: +0.038654672  nElectrons: 129.000000  magneticMoment: [ Abs: 0.10657  Tot: +0.10584 ]
	SubspaceRotationAdjust: set factor to 0.788
ElecMinimize: Iter: 155  F: -206.827454799329814  |grad|_K:  1.105e-05  alpha:  5.511e-04  linmin:  1.648e-07  t[s]:   6564.04
	FillingsUpdate:  mu: +0.038422537  nElectrons: 129.000000  magneticMoment: [ Abs: 0.10811  Tot: +0.10736 ]
	SubspaceRotationAdjust: set factor to 0.789
ElecMinimize: Iter: 156  F: -206.827463011730089  |grad|_K:  1.105e-05  alpha:  5.392e-04  linmin:  1.723e-07  t[s]:   6602.80
	FillingsUpdate:  mu: +0.038195295  nElectrons: 129.000000  magneticMoment: [ Abs: 0.10972  Tot: +0.10897 ]
	SubspaceRotationAdjust: set factor to 0.79
ElecMinimize: Iter: 157  F: -206.827471037902882  |grad|_K:  1.105e-05  alpha:  5.271e-04  linmin:  1.768e-07  t[s]:   6642.38
	FillingsUpdate:  mu: +0.037973276  nElectrons: 129.000000  magneticMoment: [ Abs: 0.11140  Tot: +0.11065 ]
	SubspaceRotationAdjust: set factor to 0.79
ElecMinimize: Iter: 158  F: -206.827478877086008  |grad|_K:  1.105e-05  alpha:  5.150e-04  linmin:  1.784e-07  t[s]:   6682.29
	FillingsUpdate:  mu: +0.037756697  nElectrons: 129.000000  magneticMoment: [ Abs: 0.11313  Tot: +0.11237 ]
	SubspaceRotationAdjust: set factor to 0.791
ElecMinimize: Iter: 159  F: -206.827486532218700  |grad|_K:  1.104e-05  alpha:  5.030e-04  linmin:  1.773e-07  t[s]:   6722.52
	FillingsUpdate:  mu: +0.037545672  nElectrons: 129.000000  magneticMoment: [ Abs: 0.11490  Tot: +0.11413 ]
	SubspaceRotationAdjust: set factor to 0.791
ElecMinimize: Iter: 160  F: -206.827494009386868  |grad|_K:  1.104e-05  alpha:  4.915e-04  linmin:  1.739e-07  t[s]:   6761.16
	FillingsUpdate:  mu: +0.037340232  nElectrons: 129.000000  magneticMoment: [ Abs: 0.11668  Tot: +0.11591 ]
	SubspaceRotationAdjust: set factor to 0.792
ElecMinimize: Iter: 161  F: -206.827501317290142  |grad|_K:  1.104e-05  alpha:  4.805e-04  linmin:  1.684e-07  t[s]:   6799.34
	FillingsUpdate:  mu: +0.037140335  nElectrons: 129.000000  magneticMoment: [ Abs: 0.11847  Tot: +0.11769 ]
	SubspaceRotationAdjust: set factor to 0.791
ElecMinimize: Iter: 162  F: -206.827508466694781  |grad|_K:  1.104e-05  alpha:  4.702e-04  linmin:  1.613e-07  t[s]:   6838.29
	FillingsUpdate:  mu: +0.036945881  nElectrons: 129.000000  magneticMoment: [ Abs: 0.12026  Tot: +0.11947 ]
	SubspaceRotationAdjust: set factor to 0.791
ElecMinimize: Iter: 163  F: -206.827515470007683  |grad|_K:  1.103e-05  alpha:  4.608e-04  linmin:  1.526e-07  t[s]:   6878.53
	FillingsUpdate:  mu: +0.036756730  nElectrons: 129.000000  magneticMoment: [ Abs: 0.12204  Tot: +0.12124 ]
	SubspaceRotationAdjust: set factor to 0.79
ElecMinimize: Iter: 164  F: -206.827522340881131  |grad|_K:  1.103e-05  alpha:  4.522e-04  linmin:  1.428e-07  t[s]:   6917.53
	FillingsUpdate:  mu: +0.036572710  nElectrons: 129.000000  magneticMoment: [ Abs: 0.12379  Tot: +0.12299 ]
	SubspaceRotationAdjust: set factor to 0.789
ElecMinimize: Iter: 165  F: -206.827529093918628  |grad|_K:  1.103e-05  alpha:  4.446e-04  linmin:  1.319e-07  t[s]:   6956.27
	FillingsUpdate:  mu: +0.036393631  nElectrons: 129.000000  magneticMoment: [ Abs: 0.12552  Tot: +0.12471 ]
	SubspaceRotationAdjust: set factor to 0.787
ElecMinimize: Iter: 166  F: -206.827535744432339  |grad|_K:  1.102e-05  alpha:  4.380e-04  linmin:  1.202e-07  t[s]:   6994.94
	FillingsUpdate:  mu: +0.036219293  nElectrons: 129.000000  magneticMoment: [ Abs: 0.12721  Tot: +0.12640 ]
	SubspaceRotationAdjust: set factor to 0.784
ElecMinimize: Iter: 167  F: -206.827542308234314  |grad|_K:  1.102e-05  alpha:  4.325e-04  linmin:  1.079e-07  t[s]:   7035.13
	FillingsUpdate:  mu: +0.036049495  nElectrons: 129.000000  magneticMoment: [ Abs: 0.12886  Tot: +0.12805 ]
	SubspaceRotationAdjust: set factor to 0.781
ElecMinimize: Iter: 168  F: -206.827548801487353  |grad|_K:  1.102e-05  alpha:  4.280e-04  linmin:  9.518e-08  t[s]:   7074.24
	FillingsUpdate:  mu: +0.035884042  nElectrons: 129.000000  magneticMoment: [ Abs: 0.13046  Tot: +0.12965 ]
	SubspaceRotationAdjust: set factor to 0.777
ElecMinimize: Iter: 169  F: -206.827555240570263  |grad|_K:  1.101e-05  alpha:  4.245e-04  linmin:  8.228e-08  t[s]:   7112.27
	FillingsUpdate:  mu: +0.035722751  nElectrons: 129.000000  magneticMoment: [ Abs: 0.13201  Tot: +0.13119 ]
	SubspaceRotationAdjust: set factor to 0.772
ElecMinimize: Iter: 170  F: -206.827561641918408  |grad|_K:  1.101e-05  alpha:  4.222e-04  linmin:  6.936e-08  t[s]:   7150.73
	FillingsUpdate:  mu: +0.035565460  nElectrons: 129.000000  magneticMoment: [ Abs: 0.13351  Tot: +0.13269 ]
	SubspaceRotationAdjust: set factor to 0.766
ElecMinimize: Iter: 171  F: -206.827568021972098  |grad|_K:  1.101e-05  alpha:  4.210e-04  linmin:  5.680e-08  t[s]:   7190.67
	FillingsUpdate:  mu: +0.035412029  nElectrons: 129.000000  magneticMoment: [ Abs: 0.13494  Tot: +0.13411 ]
	SubspaceRotationAdjust: set factor to 0.76
ElecMinimize: Iter: 172  F: -206.827574396961523  |grad|_K:  1.100e-05  alpha:  4.208e-04  linmin:  4.483e-08  t[s]:   7229.95
	FillingsUpdate:  mu: +0.035262348  nElectrons: 129.000000  magneticMoment: [ Abs: 0.13630  Tot: +0.13548 ]
	SubspaceRotationAdjust: set factor to 0.752
ElecMinimize: Iter: 173  F: -206.827580782838453  |grad|_K:  1.100e-05  alpha:  4.217e-04  linmin:  3.386e-08  t[s]:   7269.10
	FillingsUpdate:  mu: +0.035116339  nElectrons: 129.000000  magneticMoment: [ Abs: 0.13759  Tot: +0.13676 ]
	SubspaceRotationAdjust: set factor to 0.744
ElecMinimize: Iter: 174  F: -206.827587195086465  |grad|_K:  1.100e-05  alpha:  4.237e-04  linmin:  2.419e-08  t[s]:   7305.58
	FillingsUpdate:  mu: +0.034973965  nElectrons: 129.000000  magneticMoment: [ Abs: 0.13881  Tot: +0.13797 ]
	SubspaceRotationAdjust: set factor to 0.734
ElecMinimize: Iter: 175  F: -206.827593648605927  |grad|_K:  1.099e-05  alpha:  4.266e-04  linmin:  1.604e-08  t[s]:   7344.09
	FillingsUpdate:  mu: +0.034835227  nElectrons: 129.000000  magneticMoment: [ Abs: 0.13993  Tot: +0.13909 ]
	SubspaceRotationAdjust: set factor to 0.724
ElecMinimize: Iter: 176  F: -206.827600157615876  |grad|_K:  1.099e-05  alpha:  4.306e-04  linmin:  9.722e-09  t[s]:   7383.01
	FillingsUpdate:  mu: +0.034700176  nElectrons: 129.000000  magneticMoment: [ Abs: 0.14096  Tot: +0.14011 ]
	SubspaceRotationAdjust: set factor to 0.712
ElecMinimize: Iter: 177  F: -206.827606735483158  |grad|_K:  1.098e-05  alpha:  4.354e-04  linmin:  5.480e-09  t[s]:   7422.26
	FillingsUpdate:  mu: +0.034568909  nElectrons: 129.000000  magneticMoment: [ Abs: 0.14189  Tot: +0.14103 ]
	SubspaceRotationAdjust: set factor to 0.7
ElecMinimize: Iter: 178  F: -206.827613394549246  |grad|_K:  1.098e-05  alpha:  4.412e-04  linmin:  3.498e-09  t[s]:   7462.62
	FillingsUpdate:  mu: +0.034441577  nElectrons: 129.000000  magneticMoment: [ Abs: 0.14270  Tot: +0.14184 ]
	SubspaceRotationAdjust: set factor to 0.686
ElecMinimize: Iter: 179  F: -206.827620145906337  |grad|_K:  1.097e-05  alpha:  4.477e-04  linmin:  4.103e-09  t[s]:   7501.91
	FillingsUpdate:  mu: +0.034318384  nElectrons: 129.000000  magneticMoment: [ Abs: 0.14340  Tot: +0.14253 ]
	SubspaceRotationAdjust: set factor to 0.672
ElecMinimize: Iter: 180  F: -206.827626999078973  |grad|_K:  1.096e-05  alpha:  4.550e-04  linmin:  7.473e-09  t[s]:   7540.43
	FillingsUpdate:  mu: +0.034199582  nElectrons: 129.000000  magneticMoment: [ Abs: 0.14398  Tot: +0.14308 ]
	SubspaceRotationAdjust: set factor to 0.657
ElecMinimize: Iter: 181  F: -206.827633961822784  |grad|_K:  1.095e-05  alpha:  4.629e-04  linmin:  1.342e-08  t[s]:   7579.92
	FillingsUpdate:  mu: +0.034085463  nElectrons: 129.000000  magneticMoment: [ Abs: 0.14443  Tot: +0.14350 ]
	SubspaceRotationAdjust: set factor to 0.641
ElecMinimize: Iter: 182  F: -206.827641040148762  |grad|_K:  1.095e-05  alpha:  4.713e-04  linmin:  2.158e-08  t[s]:   7619.24
	FillingsUpdate:  mu: +0.033976345  nElectrons: 129.000000  magneticMoment: [ Abs: 0.14474  Tot: +0.14377 ]
	SubspaceRotationAdjust: set factor to 0.625
ElecMinimize: Iter: 183  F: -206.827648238548875  |grad|_K:  1.094e-05  alpha:  4.802e-04  linmin:  3.110e-08  t[s]:   7656.23
	FillingsUpdate:  mu: +0.033872553  nElectrons: 129.000000  magneticMoment: [ Abs: 0.14491  Tot: +0.14388 ]
	SubspaceRotationAdjust: set factor to 0.609
ElecMinimize: Iter: 184  F: -206.827655560510550  |grad|_K:  1.092e-05  alpha:  4.895e-04  linmin:  4.088e-08  t[s]:   7693.77
	FillingsUpdate:  mu: +0.033774407  nElectrons: 129.000000  magneticMoment: [ Abs: 0.14492  Tot: +0.14383 ]
	SubspaceRotationAdjust: set factor to 0.592
ElecMinimize: Iter: 185  F: -206.827663009174017  |grad|_K:  1.091e-05  alpha:  4.991e-04  linmin:  4.969e-08  t[s]:   7733.83
	FillingsUpdate:  mu: +0.033682199  nElectrons: 129.000000  magneticMoment: [ Abs: 0.14478  Tot: +0.14361 ]
	SubspaceRotationAdjust: set factor to 0.575
ElecMinimize: Iter: 186  F: -206.827670588016588  |grad|_K:  1.090e-05  alpha:  5.091e-04  linmin:  5.647e-08  t[s]:   7773.02
	FillingsUpdate:  mu: +0.033596195  nElectrons: 129.000000  magneticMoment: [ Abs: 0.14449  Tot: +0.14322 ]
	SubspaceRotationAdjust: set factor to 0.558
ElecMinimize: Iter: 187  F: -206.827678301180612  |grad|_K:  1.088e-05  alpha:  5.195e-04  linmin:  6.153e-08  t[s]:   7812.23
	FillingsUpdate:  mu: +0.033516641  nElectrons: 129.000000  magneticMoment: [ Abs: 0.14404  Tot: +0.14265 ]
	SubspaceRotationAdjust: set factor to 0.541
ElecMinimize: Iter: 188  F: -206.827686151767153  |grad|_K:  1.086e-05  alpha:  5.303e-04  linmin:  6.944e-08  t[s]:   7851.37
	FillingsUpdate:  mu: +0.033443772  nElectrons: 129.000000  magneticMoment: [ Abs: 0.14343  Tot: +0.14191 ]
	SubspaceRotationAdjust: set factor to 0.525
ElecMinimize: Iter: 189  F: -206.827694135240051  |grad|_K:  1.085e-05  alpha:  5.411e-04  linmin:  9.103e-08  t[s]:   7890.82
	FillingsUpdate:  mu: +0.033377786  nElectrons: 129.000000  magneticMoment: [ Abs: 0.14266  Tot: +0.14101 ]
	SubspaceRotationAdjust: set factor to 0.509
ElecMinimize: Iter: 190  F: -206.827702227489368  |grad|_K:  1.082e-05  alpha:  5.506e-04  linmin:  1.402e-07  t[s]:   7929.10
	FillingsUpdate:  mu: +0.033318756  nElectrons: 129.000000  magneticMoment: [ Abs: 0.14176  Tot: +0.13994 ]
	SubspaceRotationAdjust: set factor to 0.493
ElecMinimize: Iter: 191  F: -206.827710372886173  |grad|_K:  1.080e-05  alpha:  5.567e-04  linmin:  2.257e-07  t[s]:   7969.11
	FillingsUpdate:  mu: +0.033266493  nElectrons: 129.000000  magneticMoment: [ Abs: 0.14075  Tot: +0.13875 ]
	SubspaceRotationAdjust: set factor to 0.479
ElecMinimize: Iter: 192  F: -206.827718480870971  |grad|_K:  1.078e-05  alpha:  5.572e-04  linmin:  3.428e-07  t[s]:   8009.26
	FillingsUpdate:  mu: +0.033220442  nElectrons: 129.000000  magneticMoment: [ Abs: 0.13965  Tot: +0.13746 ]
	SubspaceRotationAdjust: set factor to 0.465
ElecMinimize: Iter: 193  F: -206.827726437599495  |grad|_K:  1.075e-05  alpha:  5.503e-04  linmin:  4.703e-07  t[s]:   8047.74
	FillingsUpdate:  mu: +0.033179706  nElectrons: 129.000000  magneticMoment: [ Abs: 0.13850  Tot: +0.13611 ]
	SubspaceRotationAdjust: set factor to 0.453
ElecMinimize: Iter: 194  F: -206.827734133499092  |grad|_K:  1.072e-05  alpha:  5.359e-04  linmin:  5.748e-07  t[s]:   8086.79
	FillingsUpdate:  mu: +0.033143233  nElectrons: 129.000000  magneticMoment: [ Abs: 0.13733  Tot: +0.13474 ]
	SubspaceRotationAdjust: set factor to 0.442
ElecMinimize: Iter: 195  F: -206.827741495114793  |grad|_K:  1.069e-05  alpha:  5.161e-04  linmin:  6.338e-07  t[s]:   8125.87
	FillingsUpdate:  mu: +0.033110047  nElectrons: 129.000000  magneticMoment: [ Abs: 0.13617  Tot: +0.13337 ]
	SubspaceRotationAdjust: set factor to 0.432
ElecMinimize: Iter: 196  F: -206.827748496134774  |grad|_K:  1.066e-05  alpha:  4.940e-04  linmin:  6.495e-07  t[s]:   8164.67
	FillingsUpdate:  mu: +0.033079381  nElectrons: 129.000000  magneticMoment: [ Abs: 0.13502  Tot: +0.13202 ]
	SubspaceRotationAdjust: set factor to 0.424
ElecMinimize: Iter: 197  F: -206.827755144651888  |grad|_K:  1.063e-05  alpha:  4.719e-04  linmin:  6.371e-07  t[s]:   8203.49
	FillingsUpdate:  mu: +0.033050685  nElectrons: 129.000000  magneticMoment: [ Abs: 0.13391  Tot: +0.13070 ]
	SubspaceRotationAdjust: set factor to 0.416
ElecMinimize: Iter: 198  F: -206.827761464908576  |grad|_K:  1.060e-05  alpha:  4.510e-04  linmin:  6.117e-07  t[s]:   8242.75
	FillingsUpdate:  mu: +0.033023580  nElectrons: 129.000000  magneticMoment: [ Abs: 0.13283  Tot: +0.12941 ]
	SubspaceRotationAdjust: set factor to 0.41
ElecMinimize: Iter: 199  F: -206.827767484354609  |grad|_K:  1.057e-05  alpha:  4.317e-04  linmin:  5.841e-07  t[s]:   8281.67
	FillingsUpdate:  mu: +0.032997787  nElectrons: 129.000000  magneticMoment: [ Abs: 0.13179  Tot: +0.12816 ]
	SubspaceRotationAdjust: set factor to 0.404
ElecMinimize: Iter: 200  F: -206.827773227939986  |grad|_K:  1.054e-05  alpha:  4.139e-04  linmin:  5.561e-07  t[s]:   8320.92
ElecMinimize: None of the convergence criteria satisfied after 200 iterations.
Setting wave functions to eigenvectors of Hamiltonian
Vacuum energy after initial minimize, F = -206.827773227939986

	Linear fluid (dielectric constant: 78.4, screening length: 5.74355 Bohr) occupying 0.800403 of unit cell:	Completed after 13 iterations at t[s]:   8334.73

-------- Electronic minimization -----------
	Linear fluid (dielectric constant: 78.4, screening length: 5.74355 Bohr) occupying 0.800403 of unit cell:	Completed after 0 iterations at t[s]:   8347.38
	FillingsUpdate:  mu: -0.030759508  nElectrons: 129.000000  magneticMoment: [ Abs: 0.04652  Tot: +0.04492 ]
ElecMinimize: Iter:   0  F: -206.911095566666035  |grad|_K:  8.676e-06  alpha:  1.000e+00
	Linear fluid (dielectric constant: 78.4, screening length: 5.74355 Bohr) occupying 0.817385 of unit cell:	Completed after 9 iterations at t[s]:   8377.46
	Linear fluid (dielectric constant: 78.4, screening length: 5.74355 Bohr) occupying 0.816839 of unit cell:	Completed after 4 iterations at t[s]:   8394.07
	FillingsUpdate:  mu: -0.034532137  nElectrons: 129.000000  magneticMoment: [ Abs: 0.01606  Tot: +0.01510 ]
	SubspaceRotationAdjust: set factor to 0.559
ElecMinimize: Iter:   1  F: -206.918900853519261  |grad|_K:  3.458e-06  alpha:  8.707e-01  linmin: -1.039e-03  t[s]:   8410.95
	Linear fluid (dielectric constant: 78.4, screening length: 5.74355 Bohr) occupying 0.816760 of unit cell:	Completed after 7 iterations at t[s]:   8423.60
	Linear fluid (dielectric constant: 78.4, screening length: 5.74355 Bohr) occupying 0.816387 of unit cell:	Completed after 9 iterations at t[s]:   8439.14
	FillingsUpdate:  mu: -0.038206646  nElectrons: 129.000000  magneticMoment: [ Abs: 0.00767  Tot: +0.00708 ]
	SubspaceRotationAdjust: set factor to 0.695
ElecMinimize: Iter:   2  F: -206.921080194593458  |grad|_K:  3.291e-06  alpha:  1.234e+00  linmin: -1.546e-04  t[s]:   8457.33
	Linear fluid (dielectric constant: 78.4, screening length: 5.74355 Bohr) occupying 0.808806 of unit cell:	Completed after 9 iterations at t[s]:   8470.08
	Linear fluid (dielectric constant: 78.4, screening length: 5.74355 Bohr) occupying 0.806492 of unit cell:	Completed after 9 iterations at t[s]:   8485.36
	FillingsUpdate:  mu: -0.046577088  nElectrons: 129.000000  magneticMoment: [ Abs: 0.00869  Tot: +0.00760 ]
	SubspaceRotationAdjust: set factor to 0.621
ElecMinimize: Iter:   3  F: -206.923134756959200  |grad|_K:  3.504e-06  alpha:  1.516e+00  linmin:  3.106e-04  t[s]:   8502.60
	Linear fluid (dielectric constant: 78.4, screening length: 5.74355 Bohr) occupying 0.795000 of unit cell:	Completed after 10 iterations at t[s]:   8515.78
	Linear fluid (dielectric constant: 78.4, screening length: 5.74355 Bohr) occupying 0.804786 of unit cell:	Completed after 10 iterations at t[s]:   8531.68
	FillingsUpdate:  mu: -0.047227351  nElectrons: 129.000000  magneticMoment: [ Abs: 0.00885  Tot: +0.00694 ]
	SubspaceRotationAdjust: set factor to 0.842
ElecMinimize: Iter:   4  F: -206.923304909973297  |grad|_K:  3.166e-06  alpha:  2.061e-01  linmin: -7.968e-05  t[s]:   8548.75
	Linear fluid (dielectric constant: 78.4, screening length: 5.74355 Bohr) occupying 0.803793 of unit cell:	Completed after 4 iterations at t[s]:   8561.88
	Linear fluid (dielectric constant: 78.4, screening length: 5.74355 Bohr) occupying 0.803205 of unit cell:	Completed after 5 iterations at t[s]:   8576.48
	FillingsUpdate:  mu: -0.046913764  nElectrons: 129.000000  magneticMoment: [ Abs: 0.00772  Tot: +0.00417 ]
	SubspaceRotationAdjust: set factor to 0.679
ElecMinimize: Iter:   5  F: -206.923737742689553  |grad|_K:  2.432e-06  alpha:  3.204e-01  linmin:  1.052e-04  t[s]:   8593.52
	Linear fluid (dielectric constant: 78.4, screening length: 5.74355 Bohr) occupying 0.803156 of unit cell:	Completed after 9 iterations at t[s]:   8606.91
	Linear fluid (dielectric constant: 78.4, screening length: 5.74355 Bohr) occupying 0.803151 of unit cell:	Completed after 1 iterations at t[s]:   8623.60
	FillingsUpdate:  mu: -0.045800080  nElectrons: 129.000000  magneticMoment: [ Abs: 0.00545  Tot: +0.00080 ]
	SubspaceRotationAdjust: set factor to 1.04
ElecMinimize: Iter:   6  F: -206.923972965050666  |grad|_K:  2.184e-06  alpha:  3.279e-01  linmin:  2.677e-06  t[s]:   8642.17
	Linear fluid (dielectric constant: 78.4, screening length: 5.74355 Bohr) occupying 0.803377 of unit cell:	Completed after 9 iterations at t[s]:   8655.49
	Linear fluid (dielectric constant: 78.4, screening length: 5.74355 Bohr) occupying 0.803365 of unit cell:	Completed after 6 iterations at t[s]:   8674.31
[...]
	FillingsUpdate:  mu: -0.044689091  nElectrons: 129.000000  magneticMoment: [ Abs: 0.00091  Tot: -0.00015 ]
	SubspaceRotationAdjust: set factor to 1.86
ElecMinimize: Iter:  24  F: -206.924958514523638  |grad|_K:  6.891e-07  alpha:  1.952e-01  linmin:  2.281e-06  t[s]:   9491.90
	Linear fluid (dielectric constant: 78.4, screening length: 5.74355 Bohr) occupying 0.801940 of unit cell:	Completed after 4 iterations at t[s]:   9503.57
	Linear fluid (dielectric constant: 78.4, screening length: 5.74355 Bohr) occupying 0.801981 of unit cell:	Completed after 1 iterations at t[s]:   9518.05
	FillingsUpdate:  mu: -0.044654253  nElectrons: 129.000000  magneticMoment: [ Abs: 0.00099  Tot: +0.00034 ]
	SubspaceRotationAdjust: set factor to 2
ElecMinimize: Iter:  25  F: -206.924968789650620  |grad|_K:  7.650e-07  alpha:  1.731e-01  linmin:  4.727e-06  t[s]:   9535.22
	Linear fluid (dielectric constant: 78.4, screening length: 5.74355 Bohr) occupying 0.801548 of unit cell:	Completed after 5 iterations at t[s]:   9548.23
	Linear fluid (dielectric constant: 78.4, screening length: 5.74355 Bohr) occupying 0.801741 of unit cell:	Completed after 2 iterations at t[s]:   9562.25
	FillingsUpdate:  mu: -0.044639402  nElectrons: 129.000000  magneticMoment: [ Abs: 0.00177  Tot: +0.00080 ]
	SubspaceRotationAdjust: set factor to 1.73
ElecMinimize: Iter:  26  F: -206.924976924782726  |grad|_K:  7.907e-07  alpha:  1.046e-01  linmin: -6.478e-06  t[s]:   9579.53
	Linear fluid (dielectric constant: 78.4, screening length: 5.74355 Bohr) occupying 0.801468 of unit cell:	Completed after 2 iterations at t[s]:   9592.25
	Linear fluid (dielectric constant: 78.4, screening length: 5.74355 Bohr) occupying 0.801527 of unit cell:	Completed after 2 iterations at t[s]:   9606.55
	FillingsUpdate:  mu: -0.044600542  nElectrons: 129.000000  magneticMoment: [ Abs: 0.00240  Tot: +0.00115 ]
	SubspaceRotationAdjust: set factor to 1.35
ElecMinimize: Iter:  27  F: -206.924984141770437  |grad|_K:  7.742e-07  alpha:  8.495e-02  linmin:  7.851e-06  t[s]:   9623.31
	Linear fluid (dielectric constant: 78.4, screening length: 5.74355 Bohr) occupying 0.801285 of unit cell:	Completed after 2 iterations at t[s]:   9636.08
	Linear fluid (dielectric constant: 78.4, screening length: 5.74355 Bohr) occupying 0.801521 of unit cell:	Completed after 2 iterations at t[s]:   9650.67
	FillingsUpdate:  mu: -0.044605206  nElectrons: 129.000000  magneticMoment: [ Abs: 0.00241  Tot: +0.00116 ]
	SubspaceRotationAdjust: set factor to 1.15
ElecMinimize: Iter:  28  F: -206.924984607010430  |grad|_K:  7.161e-07  alpha:  3.264e-03  linmin: -2.268e-04  t[s]:   9667.65
	Linear fluid (dielectric constant: 78.4, screening length: 5.74355 Bohr) occupying 0.801517 of unit cell:	Completed after 0 iterations at t[s]:   9679.19
ElecMinimize: 	Predicted alpha/alphaT>3.000000, increasing alphaT to 9.792416e-03.
	Linear fluid (dielectric constant: 78.4, screening length: 5.74355 Bohr) occupying 0.801510 of unit cell:	Completed after 0 iterations at t[s]:   9693.25
ElecMinimize: 	Predicted alpha/alphaT>3.000000, increasing alphaT to 2.937725e-02.
	Linear fluid (dielectric constant: 78.4, screening length: 5.74355 Bohr) occupying 0.801487 of unit cell:	Completed after 2 iterations at t[s]:   9707.97
ElecMinimize: 	Predicted alpha/alphaT>3.000000, increasing alphaT to 8.813174e-02.
	Linear fluid (dielectric constant: 78.4, screening length: 5.74355 Bohr) occupying 0.801160 of unit cell:	Completed after 3 iterations at t[s]:   9722.18
ElecMinimize: 	Step increased F by 6.035702e-04, reducing alpha to 1.357468e-02.
	Linear fluid (dielectric constant: 78.4, screening length: 5.74355 Bohr) occupying 0.801506 of unit cell:	Completed after 2 iterations at t[s]:   9750.46
	FillingsUpdate:  mu: -0.044604845  nElectrons: 129.000000  magneticMoment: [ Abs: 0.00242  Tot: +0.00115 ]
	SubspaceRotationAdjust: set factor to 1.04
ElecMinimize: Iter:  29  F: -206.924987797454008  |grad|_K:  6.681e-07  alpha:  1.357e-02  linmin: -4.513e-04  t[s]:   9768.44
	Linear fluid (dielectric constant: 78.4, screening length: 5.74355 Bohr) occupying 0.801500 of unit cell:	Completed after 2 iterations at t[s]:   9779.75
ElecMinimize: 	Predicted alpha/alphaT>3.000000, increasing alphaT to 4.072404e-02.
	Linear fluid (dielectric constant: 78.4, screening length: 5.74355 Bohr) occupying 0.801486 of unit cell:	Completed after 2 iterations at t[s]:   9793.93
ElecMinimize: 	Predicted alpha/alphaT>3.000000, increasing alphaT to 1.221721e-01.
	Linear fluid (dielectric constant: 78.4, screening length: 5.74355 Bohr) occupying 0.801424 of unit cell:	Completed after 2 iterations at t[s]:   9807.67
	Linear fluid (dielectric constant: 78.4, screening length: 5.74355 Bohr) occupying 0.801426 of unit cell:	Completed after 0 iterations at t[s]:   9821.12
	FillingsUpdate:  mu: -0.044566567  nElectrons: 129.000000  magneticMoment: [ Abs: 0.00225  Tot: +0.00090 ]
	SubspaceRotationAdjust: set factor to 0.661
ElecMinimize: Iter:  30  F: -206.925006545659983  |grad|_K:  8.619e-07  alpha:  1.202e-01  linmin:  4.096e-04  t[s]:   9837.40
ElecMinimize: 	Bad step direction: g.d > 0.
ElecMinimize: 	Undoing step.
	Linear fluid (dielectric constant: 78.4, screening length: 5.74355 Bohr) occupying 0.801426 of unit cell:	Completed after 0 iterations at t[s]:   9850.26
ElecMinimize: 	Step failed: resetting search direction.
	FillingsUpdate:  mu: -0.044566567  nElectrons: 129.000000  magneticMoment: [ Abs: 0.00225  Tot: +0.00090 ]
	SubspaceRotationAdjust: set factor to 0.472
ElecMinimize: Iter:  31  F: -206.925006545660324  |grad|_K:  7.279e-07  alpha:  0.000e+00
	Linear fluid (dielectric constant: 78.4, screening length: 5.74355 Bohr) occupying 0.801476 of unit cell:	Completed after 2 iterations at t[s]:   9880.47
	Linear fluid (dielectric constant: 78.4, screening length: 5.74355 Bohr) occupying 0.801495 of unit cell:	Completed after 1 iterations at t[s]:   9894.18
	FillingsUpdate:  mu: -0.044566466  nElectrons: 129.000000  magneticMoment: [ Abs: 0.00200  Tot: +0.00079 ]
	SubspaceRotationAdjust: set factor to 0.703
ElecMinimize: Iter:  32  F: -206.925019659999748  |grad|_K:  4.208e-07  alpha:  1.679e-01  linmin: -1.311e-03  t[s]:   9911.70
	Linear fluid (dielectric constant: 78.4, screening length: 5.74355 Bohr) occupying 0.801555 of unit cell:	Completed after 2 iterations at t[s]:   9923.40
ElecMinimize: 	Predicted alpha/alphaT>3.000000, increasing alphaT to 5.036774e-01.
	Linear fluid (dielectric constant: 78.4, screening length: 5.74355 Bohr) occupying 0.801667 of unit cell:	Completed after 3 iterations at t[s]:   9937.99
	Linear fluid (dielectric constant: 78.4, screening length: 5.74355 Bohr) occupying 0.801767 of unit cell:	Completed after 2 iterations at t[s]:   9952.56
	FillingsUpdate:  mu: -0.044566282  nElectrons: 129.000000  magneticMoment: [ Abs: 0.00093  Tot: +0.00024 ]
	SubspaceRotationAdjust: set factor to 0.794
ElecMinimize: Iter:  33  F: -206.925048321145312  |grad|_K:  2.970e-07  alpha:  8.279e-01  linmin: -1.919e-04  t[s]:   9970.07
	Linear fluid (dielectric constant: 78.4, screening length: 5.74355 Bohr) occupying 0.801889 of unit cell:	Completed after 2 iterations at t[s]:   9982.04
	Linear fluid (dielectric constant: 78.4, screening length: 5.74355 Bohr) occupying 0.801900 of unit cell:	Completed after 1 iterations at t[s]:   9996.18
	FillingsUpdate:  mu: -0.044603520  nElectrons: 129.000000  magneticMoment: [ Abs: 0.00049  Tot: -0.00016 ]
	SubspaceRotationAdjust: set factor to 0.717
ElecMinimize: Iter:  34  F: -206.925060911240422  |grad|_K:  1.915e-07  alpha:  9.104e-01  linmin: -1.684e-05  t[s]:  10012.75
	Linear fluid (dielectric constant: 78.4, screening length: 5.74355 Bohr) occupying 0.801867 of unit cell:	Completed after 2 iterations at t[s]:  10022.71
	Linear fluid (dielectric constant: 78.4, screening length: 5.74355 Bohr) occupying 0.801857 of unit cell:	Completed after 1 iterations at t[s]:  10035.23
	FillingsUpdate:  mu: -0.044616943  nElectrons: 129.000000  magneticMoment: [ Abs: 0.00059  Tot: -0.00015 ]
	SubspaceRotationAdjust: set factor to 0.83
ElecMinimize: Iter:  35  F: -206.925066454374189  |grad|_K:  1.246e-07  alpha:  1.181e+00  linmin:  3.985e-07  t[s]:  10053.02
	Linear fluid (dielectric constant: 78.4, screening length: 5.74355 Bohr) occupying 0.801744 of unit cell:	Completed after 2 iterations at t[s]:  10065.11
	Linear fluid (dielectric constant: 78.4, screening length: 5.74355 Bohr) occupying 0.801746 of unit cell:	Completed after 0 iterations at t[s]:  10078.76
	FillingsUpdate:  mu: -0.044623116  nElectrons: 129.000000  magneticMoment: [ Abs: 0.00033  Tot: +0.00006 ]
	SubspaceRotationAdjust: set factor to 1.24
ElecMinimize: Iter:  36  F: -206.925068713059005  |grad|_K:  5.996e-08  alpha:  1.163e+00  linmin:  3.338e-06  t[s]:  10096.08
	Linear fluid (dielectric constant: 78.4, screening length: 5.74355 Bohr) occupying 0.801718 of unit cell:	Completed after 2 iterations at t[s]:  10108.32
	Linear fluid (dielectric constant: 78.4, screening length: 5.74355 Bohr) occupying 0.801725 of unit cell:	Completed after 0 iterations at t[s]:  10121.63
	FillingsUpdate:  mu: -0.044605987  nElectrons: 129.000000  magneticMoment: [ Abs: 0.00024  Tot: +0.00011 ]
	SubspaceRotationAdjust: set factor to 1.3
ElecMinimize: Iter:  37  F: -206.925069106774174  |grad|_K:  2.741e-08  alpha:  8.775e-01  linmin:  7.469e-06  t[s]:  10138.60
	Linear fluid (dielectric constant: 78.4, screening length: 5.74355 Bohr) occupying 0.801692 of unit cell:	Completed after 1 iterations at t[s]:  10150.66
	Linear fluid (dielectric constant: 78.4, screening length: 5.74355 Bohr) occupying 0.801689 of unit cell:	Completed after 0 iterations at t[s]:  10163.84
	FillingsUpdate:  mu: -0.044611125  nElectrons: 129.000000  magneticMoment: [ Abs: 0.00026  Tot: +0.00008 ]
	SubspaceRotationAdjust: set factor to 1.16
ElecMinimize: Iter:  38  F: -206.925069195726365  |grad|_K:  1.571e-08  alpha:  9.476e-01  linmin: -1.777e-05  t[s]:  10180.74
	Linear fluid (dielectric constant: 78.4, screening length: 5.74355 Bohr) occupying 0.801689 of unit cell:	Completed after 0 iterations at t[s]:  10192.55
	Linear fluid (dielectric constant: 78.4, screening length: 5.74355 Bohr) occupying 0.801688 of unit cell:	Completed after 0 iterations at t[s]:  10206.94
	FillingsUpdate:  mu: -0.044611296  nElectrons: 129.000000  magneticMoment: [ Abs: 0.00024  Tot: +0.00004 ]
	SubspaceRotationAdjust: set factor to 1.15
ElecMinimize: Iter:  39  F: -206.925069242026694  |grad|_K:  1.071e-08  alpha:  1.366e+00  linmin:  5.468e-07  t[s]:  10222.96
	Linear fluid (dielectric constant: 78.4, screening length: 5.74355 Bohr) occupying 0.801692 of unit cell:	Completed after 2 iterations at t[s]:  10234.97
	Linear fluid (dielectric constant: 78.4, screening length: 5.74355 Bohr) occupying 0.801690 of unit cell:	Completed after 0 iterations at t[s]:  10249.29
ElecMinimize: 	Step increased F by 5.529188e-09, reducing alpha to 6.300006e-02.
	Linear fluid (dielectric constant: 78.4, screening length: 5.74355 Bohr) occupying 0.801689 of unit cell:	Completed after 0 iterations at t[s]:  10276.56
ElecMinimize: 	Step increased F by 1.541136e-08, reducing alpha to 6.300006e-03.
	Linear fluid (dielectric constant: 78.4, screening length: 5.74355 Bohr) occupying 0.801688 of unit cell:	Completed after 0 iterations at t[s]:  10303.68
ElecMinimize: 	Step increased F by 1.678458e-08, reducing alpha to 6.300006e-04.
ElecMinimize: 	Step failed to reduce F after 3 attempts. Quitting step.
ElecMinimize: 	Undoing step.
	Linear fluid (dielectric constant: 78.4, screening length: 5.74355 Bohr) occupying 0.801688 of unit cell:	Completed after 0 iterations at t[s]:  10331.06
ElecMinimize: 	Step failed: resetting search direction.
	FillingsUpdate:  mu: -0.044624864  nElectrons: 129.000000  magneticMoment: [ Abs: 0.00024  Tot: +0.00004 ]
	SubspaceRotationAdjust: set factor to 1.22
ElecMinimize: Iter:  40  F: -206.925069225227986  |grad|_K:  1.653e-08  alpha:  6.300e-04
	Linear fluid (dielectric constant: 78.4, screening length: 5.74355 Bohr) occupying 0.801760 of unit cell:	Completed after 2 iterations at t[s]:  10360.58
	Linear fluid (dielectric constant: 78.4, screening length: 5.74355 Bohr) occupying 0.801726 of unit cell:	Completed after 0 iterations at t[s]:  10373.79
	FillingsUpdate:  mu: -0.044605233  nElectrons: 129.000000  magneticMoment: [ Abs: 0.00023  Tot: +0.00006 ]
	SubspaceRotationAdjust: set factor to 0.796
ElecMinimize: Iter:  41  F: -206.925069257190501  |grad|_K:  1.363e-08  alpha:  7.244e-01  linmin:  4.760e-05  t[s]:  10390.97
	Linear fluid (dielectric constant: 78.4, screening length: 5.74355 Bohr) occupying 0.801718 of unit cell:	Completed after 0 iterations at t[s]:  10402.54
	Linear fluid (dielectric constant: 78.4, screening length: 5.74355 Bohr) occupying 0.801712 of unit cell:	Completed after 1 iterations at t[s]:  10418.02
	FillingsUpdate:  mu: -0.044612183  nElectrons: 129.000000  magneticMoment: [ Abs: 0.00021  Tot: +0.00008 ]
	SubspaceRotationAdjust: set factor to 0.75
ElecMinimize: Iter:  42  F: -206.925069257803159  |grad|_K:  9.848e-09  alpha:  1.247e+00  linmin:  5.265e-06  t[s]:  10435.31
	Linear fluid (dielectric constant: 78.4, screening length: 5.74355 Bohr) occupying 0.801701 of unit cell:	Completed after 0 iterations at t[s]:  10447.00
	Linear fluid (dielectric constant: 78.4, screening length: 5.74355 Bohr) occupying 0.801705 of unit cell:	Completed after 0 iterations at t[s]:  10463.16
	FillingsUpdate:  mu: -0.044611984  nElectrons: 129.000000  magneticMoment: [ Abs: 0.00021  Tot: +0.00007 ]
	SubspaceRotationAdjust: set factor to 0.993
ElecMinimize: Iter:  43  F: -206.925069265993073  |grad|_K:  5.493e-09  alpha:  8.319e-01  linmin: -3.463e-08  t[s]:  10482.29
ElecMinimize: Converged (|Delta F|<1.000000e-08 for 2 iters).
Setting wave functions to eigenvectors of Hamiltonian
Single-point solvation energy estimate, DeltaF = -0.097296038053088

# Ionic positions in lattice coordinates:
ion B   0.166670009390625   0.083330014890624   0.500000000000000 1
ion B   0.416670009390625   0.083330014890624   0.500000000000000 1
ion B   0.666670009390625   0.083330014890624   0.500000000000000 1
ion B   0.916670009390625   0.083330014890624   0.500000000000000 1
ion B   0.166670009390625   0.333330014890624   0.500000000000000 1
ion B   0.416670009390625   0.333330014890624   0.500000000000000 1
ion B   0.666670009390625   0.333330014890624   0.500000000000000 1
ion B   0.916670009390625   0.333330014890624   0.500000000000000 1
ion B   0.166670009390625   0.583330014890624   0.500000000000000 1
ion B   0.416670009390625   0.583330014890624   0.500000000000000 1
ion B   0.666670009390625   0.583330014890624   0.500000000000000 1
ion B   0.916670009390625   0.583330014890624   0.500000000000000 1
ion B   0.166670009390625   0.833330014890624   0.500000000000000 1
ion B   0.416670009390625   0.833330014890624   0.500000000000000 1
ion B   0.666670009390625   0.833330014890624   0.500000000000000 1
ion B   0.916670009390625   0.833330014890624   0.500000000000000 1
ion N   0.083330006421875   0.166670017859374   0.500000000000000 1
ion N   0.333330006421875   0.166670017859374   0.500000000000000 1
ion N   0.583330006421875   0.166670017859374   0.500000000000000 1
ion N   0.833330006421875   0.166670017859374   0.500000000000000 1
ion N   0.083330006421875   0.416670017859374   0.500000000000000 1
ion N   0.333330006421875   0.416670017859374   0.500000000000000 1
ion N   0.583330006421875   0.416670017859374   0.500000000000000 1
ion N   0.833330006421875   0.416670017859374   0.500000000000000 1
ion N   0.083330006421875   0.666670017859374   0.500000000000000 1
ion N   0.333330006421875   0.666670017859374   0.500000000000000 1
ion N   0.583330006421875   0.666670017859374   0.500000000000000 1
ion N   0.833330006421875   0.666670017859374   0.500000000000000 1
ion N   0.083330006421875   0.916670017859374   0.500000000000000 1
ion N   0.333330006421875   0.916670017859374   0.500000000000000 1
ion N   0.583330006421875   0.916670017859374   0.500000000000000 1
ion N   0.833330006421875   0.916670017859374   0.500000000000000 1


# Forces in Lattice coordinates:
force B  -0.001453934789616   0.001453934789616  -0.000000000000000 1
force B  -0.001453934789616   0.001453934789616   0.000000000000000 1
force B  -0.001453934789616   0.001453934789616   0.000000000000000 1
force B  -0.001453934789616   0.001453934789616  -0.000000000000000 1
force B  -0.001453934789616   0.001453934789616  -0.000000000000000 1
force B  -0.001453934789616   0.001453934789616  -0.000000000000000 1
force B  -0.001453934789616   0.001453934789616   0.000000000000000 1
force B  -0.001453934789616   0.001453934789616   0.000000000000000 1
force B  -0.001453934789616   0.001453934789616  -0.000000000000000 1
force B  -0.001453934789616   0.001453934789616   0.000000000000000 1
force B  -0.001453934789616   0.001453934789616   0.000000000000000 1
force B  -0.001453934789616   0.001453934789616   0.000000000000000 1
force B  -0.001453934789616   0.001453934789616  -0.000000000000000 1
force B  -0.001453934789616   0.001453934789616  -0.000000000000000 1
force B  -0.001453934789616   0.001453934789616  -0.000000000000000 1
force B  -0.001453934789616   0.001453934789616  -0.000000000000000 1
force N   0.001605209171994  -0.001605209171994  -0.000000000000000 1
force N   0.001605209171994  -0.001605209171994  -0.000000000000000 1
force N   0.001605209171994  -0.001605209171994   0.000000000000000 1
force N   0.001605209171994  -0.001605209171994  -0.000000000000000 1
force N   0.001605209171994  -0.001605209171994  -0.000000000000000 1
force N   0.001605209171994  -0.001605209171994  -0.000000000000000 1
force N   0.001605209171994  -0.001605209171994   0.000000000000000 1
force N   0.001605209171994  -0.001605209171994   0.000000000000000 1
force N   0.001605209171994  -0.001605209171994   0.000000000000000 1
force N   0.001605209171994  -0.001605209171994   0.000000000000000 1
force N   0.001605209171994  -0.001605209171994   0.000000000000000 1
force N   0.001605209171994  -0.001605209171994   0.000000000000000 1
force N   0.001605209171994  -0.001605209171994  -0.000000000000000 1
force N   0.001605209171994  -0.001605209171994  -0.000000000000000 1
force N   0.001605209171994  -0.001605209171994  -0.000000000000000 1
force N   0.001605209171994  -0.001605209171994   0.000000000000000 1

# Energy components:
   A_diel =       -0.0703858246495333
   Eewald =     1248.1722017259053246
       EH =     1431.2914693556595012
     Eloc =    -2975.2777201365493056
      Enl =       30.0996999668136240
      Exc =      -67.9995368292166518
 Exc_core =        6.8944935515921957
       KE =      119.9871605247601565
  MuShift =       -0.0072259251153818
-------------------------------------
     Etot =     -206.9098435908003353
       TS =        0.0152256751927495
-------------------------------------
        F =     -206.9250692659930735

IonicMinimize: Iter:   0  F: -206.925069265993073  |grad|_K:  5.389e-05  t[s]:  10492.01
IonicMinimize: Converged (|grad|_K<1.000000e-04).

#--- Lowdin population analysis ---
# oxidation-state B +0.440 +0.440 +0.440 +0.440 +0.440 +0.440 +0.440 +0.440 +0.440 +0.440 +0.440 +0.440 +0.440 +0.440 +0.440 +0.440
# magnetic-moments B -0.000 -0.000 -0.000 -0.000 -0.000 -0.000 -0.000 -0.000 -0.000 -0.000 -0.000 -0.000 -0.000 -0.000 -0.000 -0.000
# oxidation-state N -0.408 -0.408 -0.408 -0.408 -0.408 -0.408 -0.408 -0.408 -0.408 -0.408 -0.408 -0.408 -0.408 -0.408 -0.408 -0.408
# magnetic-moments N -0.000 -0.000 -0.000 -0.000 -0.000 -0.000 -0.000 -0.000 -0.000 -0.000 -0.000 -0.000 -0.000 -0.000 -0.000 -0.000


Dumping 'NbTe2.fillings' ... done
Dumping 'NbTe2.wfns' ... done
Dumping 'NbTe2.fluidState' ... done
Dumping 'NbTe2.ionpos' ... done
Dumping 'NbTe2.eigenvals' ... done
End date and time: Fri Jan 22 01:23:07 2021  (Duration: 0-2:54:56.22)
Done!
