
*************** JDFTx 1.5.0  ***************

Start date and time: Thu Jul 30 17:42:14 2020
Executable jdftx_gpu with command-line: -i Charged.in -o Charged.out
Running on hosts (process indices):  amax (0-5)
Divided in process groups (process indices):  0 (0)  1 (1)  2 (2)  3 (3)  4 (4)  5 (5)
gpuInit: Found compatible cuda device 0 'Tesla K80'
gpuInit: Found compatible cuda device 1 'Tesla K80'
gpuInit: Found compatible cuda device 2 'Tesla K80'
gpuInit: Found compatible cuda device 3 'Tesla K80'
gpuInit: Found compatible cuda device 4 'Tesla K80'
gpuInit: Found compatible cuda device 5 'Tesla K80'
gpuInit: Selected device 0
Resource initialization completed at t[s]:      7.34
Run totals: 6 processes, 24 threads, 6 GPUs


Input parsed successfully to the following command list (including defaults):

basis kpoint-dependent
cache-projectors no
coords-type Lattice
core-overlap-check none
coulomb-interaction Slab 001
coulomb-truncation-embed 0 0 0.5
davidson-band-ratio 1.1
dump End State
dump-name NbTe2.$VAR
elec-cutoff 20 100
elec-eigen-algo Davidson
elec-ex-corr gga-PBE
elec-smearing Gauss 0.0073499
electronic-minimize  \
	dirUpdateScheme      FletcherReeves \
	linminMethod         DirUpdateRecommended \
	nIterations          500 \
	history              15 \
	knormThreshold       0 \
	energyDiffThreshold  1e-08 \
	nEnergyDiff          2 \
	alphaTstart          1 \
	alphaTmin            1e-10 \
	updateTestStepSize   yes \
	alphaTreduceFactor   0.1 \
	alphaTincreaseFactor 3 \
	nAlphaAdjustMax      3 \
	wolfeEnergy          0.0001 \
	wolfeGradient        0.9 \
	fdTest               no
exchange-regularization WignerSeitzTruncated
fluid LinearPCM 298.000000 1.013250
fluid-anion F- 1 MeanFieldLJ \
	epsBulk 1 \
	pMol 0 \
	epsInf 1 \
	Pvap 0 \
	sigmaBulk 0 \
	Rvdw 2.24877 \
	Res 0 \
	tauNuc 343133
fluid-cation Na+ 1 MeanFieldLJ \
	epsBulk 1 \
	pMol 0 \
	epsInf 1 \
	Pvap 0 \
	sigmaBulk 0 \
	Rvdw 2.19208 \
	Res 0 \
	tauNuc 343133
fluid-ex-corr lda-TF lda-PZ
fluid-gummel-loop 10 1.000000e-05
fluid-minimize  \
	dirUpdateScheme      PolakRibiere \
	linminMethod         DirUpdateRecommended \
	nIterations          400 \
	history              15 \
	knormThreshold       1e-11 \
	energyDiffThreshold  0 \
	nEnergyDiff          2 \
	alphaTstart          1 \
	alphaTmin            1e-10 \
	updateTestStepSize   yes \
	alphaTreduceFactor   0.1 \
	alphaTincreaseFactor 3 \
	nAlphaAdjustMax      6 \
	wolfeEnergy          0.0001 \
	wolfeGradient        0.9 \
	fdTest               no
fluid-solvent H2O 55.338 ScalarEOS \
	epsBulk 78.4 \
	pMol 0.92466 \
	epsInf 1.77 \
	Pvap 1.06736e-10 \
	sigmaBulk 4.62e-05 \
	Rvdw 2.61727 \
	Res 1.42 \
	tauNuc 343133 \
	poleEl 15 7 1
forces-output-coords Positions
initial-state NbTe2.$VAR
ion Li   0.333999930863447   0.334499685284467   0.497707429953407 0
ion Li   0.831590507058168   0.334283409219119   0.498484362126442 0
ion Li   0.334657564649104   0.831043976612993   0.498168497957380 0
ion Li   0.833366377293396   0.833287519990771   0.498712247494613 0
ion Ni   0.167135976856994   0.165767513206287   0.498654374917615 0
ion Ni   0.666534886220947   0.167190422763291   0.498662391815860 0
ion Ni   0.166943772957093   0.666381528862130   0.498731424727690 0
ion Ni   0.666517065896414   0.666723579034103   0.498518424186501 0
ion P  -0.002342977355621   0.502378758286854   0.438589846621640 0
ion P  -0.000189624245169   0.502184915448700   0.558273644453774 0
ion P   0.500083632504714   0.499917077183165   0.498207448132237 0
ion P   0.501935166328370  -0.002171216278450   0.557911674867947 0
ion P   0.000682700565857  -0.002762834879629   0.439296578232414 0
ion P  -0.001909543073239  -0.000543082785519   0.558841968237891 0
ion P   0.502467999266034  -0.000229191041177   0.438356183112401 0
ion S   0.016982310227966   0.324600913339834   0.585667651463139 0
ion S   0.323280345799697   0.159081954421856   0.584422850660488 0
ion S   0.018464719410322   0.158012608141325   0.412290887680008 0
ion S   0.157534762537651   0.324877574629722   0.410859482608816 0
ion S   0.323998889416408   0.017483417289293   0.410941790247117 0
ion S   0.159467629234941   0.016591802866656   0.585877383133040 0
ion S   0.518614152046680   0.338509916695553   0.568923504477935 0
ion S   0.818643677973330   0.165245102096427   0.583168172121696 0
ion S   0.516576555708803   0.165238413121412   0.413902274909477 0
ion S   0.643301557561234   0.338193333467462   0.427725362879323 0
ion S   0.823586520010163   0.014958794811554   0.411136568962391 0
ion S   0.661406101536330   0.015458208532529   0.586143211461370 0
ion S   0.014399533382588   0.823314301659302   0.586366141600067 0
ion S   0.338819573855083   0.642655902283965   0.569132853429300 0
ion S   0.014379706917836   0.662159232929015   0.411176069496638 0
ion S   0.165796881708685   0.818176037126068   0.414349368142423 0
ion S   0.337782797573434   0.518816368722332   0.427688808588499 0
ion S   0.165956978117009   0.516298546501034   0.582914412918060 0
ion S   0.515663270976261   0.818786474794797   0.582819779456368 0
ion S   0.823304223817907   0.661993615341249   0.585953010614387 0
ion S   0.518676085964042   0.642962763604142   0.427553796478842 0
ion S   0.662131720156915   0.823588010345055   0.410832204901996 0
ion S   0.817223063450072   0.516802660432892   0.414047592985254 0
ion S   0.643225079830126   0.518823033939475   0.568990340945557 0
ion-species GBRV/$ID_pbe.uspp
ion-width Ecut
ionic-minimize  \
	dirUpdateScheme      L-BFGS \
	linminMethod         DirUpdateRecommended \
	nIterations          0 \
	history              15 \
	knormThreshold       0.0001 \
	energyDiffThreshold  1e-06 \
	nEnergyDiff          2 \
	alphaTstart          1 \
	alphaTmin            1e-10 \
	updateTestStepSize   yes \
	alphaTreduceFactor   0.1 \
	alphaTincreaseFactor 3 \
	nAlphaAdjustMax      3 \
	wolfeEnergy          0.0001 \
	wolfeGradient        0.9 \
	fdTest               no
kpoint   0.000000000000   0.000000000000   0.000000000000  1.00000000000000
kpoint-folding 3 3 1 
latt-move-scale 1 1 1
latt-scale 1 1 1 
lattice Triclinic 21.9941 22.0864 34.3361 90 90 60.1379
lattice-minimize  \
	dirUpdateScheme      L-BFGS \
	linminMethod         DirUpdateRecommended \
	nIterations          0 \
	history              15 \
	knormThreshold       0 \
	energyDiffThreshold  1e-06 \
	nEnergyDiff          2 \
	alphaTstart          1 \
	alphaTmin            1e-10 \
	updateTestStepSize   yes \
	alphaTreduceFactor   0.1 \
	alphaTincreaseFactor 3 \
	nAlphaAdjustMax      3 \
	wolfeEnergy          0.0001 \
	wolfeGradient        0.9 \
	fdTest               no
lcao-params -1 1e-06 0.0073499
pcm-variant CANDLE
spintype no-spin
subspace-rotation-factor 1 yes
symmetries automatic
symmetry-threshold 0.0001
target-mu -0.171252 no




---------- Setting up symmetries ----------

Found 8 point-group symmetries of the bravais lattice
Found 1 space-group symmetries with basis
Applied RMS atom displacement 0 bohrs to make symmetries exact.

---------- Initializing the Grid ----------
R = 
[    21.9941    10.9971          0  ]
[          0    19.1539          0  ]
[          0          0    34.3361  ]
unit cell volume = 14464.9
G =
[   0.285675  -0.164019          0  ]
[          0   0.328037          0  ]
[          0          0    0.18299  ]
Minimum fftbox size, Smin = [  100  100  156  ]
Chosen fftbox size, S = [  100  100  160  ]

---------- Initializing tighter grid for wavefunction operations ----------
R = 
[    21.9941    10.9971          0  ]
[          0    19.1539          0  ]
[          0          0    34.3361  ]
unit cell volume = 14464.9
G =
[   0.285675  -0.164019          0  ]
[          0   0.328037          0  ]
[          0          0    0.18299  ]
Minimum fftbox size, Smin = [  92  92  140  ]
Chosen fftbox size, S = [  96  96  140  ]

---------- Exchange Correlation functional ----------
Initalized PBE GGA exchange.
Initalized PBE GGA correlation.

---------- Setting up pseudopotentials ----------
Width of ionic core gaussian charges (only for fluid interactions / plotting) set to 0.397384

Reading pseudopotential file '/home/guoxy/vasp/jdftx-1.5.0/build/pseudopotentials/GBRV/li_pbe.uspp':
  Title: Li.  Created by USPP 7.3.6 on 8-4-15
  Reference state energy: -7.100502.  3 valence electrons in orbitals:
    |100>  occupation: 2  eigenvalue: -2.033252
    |200>  occupation: 0.55  eigenvalue: -0.187138
    |210>  occupation: 0  eigenvalue: -0.114272
  lMax: 1  lLocal: 2  QijEcut: 6
  5 projectors sampled on a log grid with 541 points:
    l: 0  eig: -2.033252  rCut: 1.3
    l: 0  eig: -0.187138  rCut: 1.3
    l: 0  eig: 1.000000  rCut: 1.3
    l: 1  eig: -0.114273  rCut: 2.001
    l: 1  eig: 1.000000  rCut: 2.001
  Transforming local potential to a uniform radial grid of dG=0.02 with 1605 points.
  Transforming nonlocal projectors to a uniform radial grid of dG=0.02 with 432 points.
  Transforming density augmentations to a uniform radial grid of dG=0.02 with 1605 points.
  Transforming atomic orbitals to a uniform radial grid of dG=0.02 with 432 points.
  Core radius for overlap checks: 2.00 bohrs.

Reading pseudopotential file '/home/guoxy/vasp/jdftx-1.5.0/build/pseudopotentials/GBRV/ni_pbe.uspp':
  Title: Ni.  Created by USPP 7.3.6 on 1-4-15
  Reference state energy: -170.398381.  18 valence electrons in orbitals:
    |300>  occupation: 2  eigenvalue: -4.804705
    |310>  occupation: 6  eigenvalue: -3.347751
    |320>  occupation: 8  eigenvalue: -1.042415
    |400>  occupation: 0  eigenvalue: -0.795539
    |410>  occupation: 0  eigenvalue: -0.551375
  lMax: 2  lLocal: 3  QijEcut: 6.5
  6 projectors sampled on a log grid with 611 points:
    l: 0  eig: -4.804708  rCut: 1.44
    l: 0  eig: -0.795541  rCut: 1.44
    l: 1  eig: -3.347753  rCut: 1.55
    l: 1  eig: 0.500000  rCut: 1.55
    l: 2  eig: -1.042418  rCut: 1.5
    l: 2  eig: -0.450000  rCut: 1.5
  Partial core density with radius 0.65
  Transforming core density to a uniform radial grid of dG=0.02 with 1605 points.
  Transforming local potential to a uniform radial grid of dG=0.02 with 1605 points.
  Transforming nonlocal projectors to a uniform radial grid of dG=0.02 with 432 points.
  Transforming density augmentations to a uniform radial grid of dG=0.02 with 1605 points.
  Transforming atomic orbitals to a uniform radial grid of dG=0.02 with 432 points.
  Core radius for overlap checks: 1.55 bohrs.

Reading pseudopotential file '/home/guoxy/vasp/jdftx-1.5.0/build/pseudopotentials/GBRV/p_pbe.uspp':
  Title: P.  Created by USPP 7.3.6 on 11-6-15
  Reference state energy: -7.561951.  5 valence electrons in orbitals:
    |300>  occupation: 2  eigenvalue: -0.513368
    |310>  occupation: 3  eigenvalue: -0.202371
  lMax: 2  lLocal: 3  QijEcut: 5
  6 projectors sampled on a log grid with 631 points:
    l: 0  eig: -0.513363  rCut: 1.5
    l: 0  eig: 0.500000  rCut: 1.5
    l: 1  eig: -0.202372  rCut: 1.5
    l: 1  eig: 1.000000  rCut: 1.5
    l: 2  eig: -0.500000  rCut: 1.5
    l: 2  eig: 1.500000  rCut: 1.5
  Partial core density with radius 1.35
  Transforming core density to a uniform radial grid of dG=0.02 with 1605 points.
  Transforming local potential to a uniform radial grid of dG=0.02 with 1605 points.
  Transforming nonlocal projectors to a uniform radial grid of dG=0.02 with 432 points.
  Transforming density augmentations to a uniform radial grid of dG=0.02 with 1605 points.
  Transforming atomic orbitals to a uniform radial grid of dG=0.02 with 432 points.
  Core radius for overlap checks: 1.50 bohrs.

Reading pseudopotential file '/home/guoxy/vasp/jdftx-1.5.0/build/pseudopotentials/GBRV/s_pbe.uspp':
  Title: S.  Created by USPP 7.3.6 on 1-4-15
  Reference state energy: -11.898476.  6 valence electrons in orbitals:
    |300>  occupation: 2  eigenvalue: -0.634167
    |310>  occupation: 4  eigenvalue: -0.257568
  lMax: 2  lLocal: 3  QijEcut: 6
  6 projectors sampled on a log grid with 635 points:
    l: 0  eig: -0.634161  rCut: 1.5
    l: 0  eig: 1.500000  rCut: 1.5
    l: 1  eig: -0.257567  rCut: 1.5
    l: 1  eig: 1.500000  rCut: 1.5
    l: 2  eig: -1.000000  rCut: 1.5
    l: 2  eig: 1.500000  rCut: 1.5
  Partial core density with radius 1.15
  Transforming core density to a uniform radial grid of dG=0.02 with 1605 points.
  Transforming local potential to a uniform radial grid of dG=0.02 with 1605 points.
  Transforming nonlocal projectors to a uniform radial grid of dG=0.02 with 432 points.
  Transforming density augmentations to a uniform radial grid of dG=0.02 with 1605 points.
  Transforming atomic orbitals to a uniform radial grid of dG=0.02 with 432 points.
  Core radius for overlap checks: 1.50 bohrs.

Initialized 4 species with 39 total atoms.

Folded 1 k-points by 3x3x1 to 9 k-points.

---------- Setting up k-points, bands, fillings ----------
Adding inversion symmetry to k-mesh for non-inversion-symmetric unit cell.
Reduced to 5 k-points under symmetry. 
Computing the number of bands and number of electrons
Reading initial fillings from file NbTe2.fillings.
nElectrons: 263.000000   nBands: 196   nStates: 5

----- Setting up reduced wavefunction bases (one per k-point) -----
average nbasis = 61788.111 , ideal nbasis = 61795.097

---------- Setting up coulomb interaction ----------
Fluid mode embedding: using embedded box, but periodic Coulomb kernel.
(Fluid response is responsible for (approximate) separation between periodic images.)
Setting up double-sized grid for truncated Coulomb potentials:
R = 
[    21.9941    10.9971          0  ]
[          0    19.1539          0  ]
[          0          0    68.6723  ]
unit cell volume = 28929.8
G =
[   0.285675  -0.164019          0  ]
[          0   0.328037          0  ]
[          0          0  0.0914952  ]
Chosen fftbox size, S = [  100  100  320  ]
Integer grid location selected as the embedding center:
   Grid: [  0  0  80  ]
   Lattice: [  0  0  0.5  ]
   Cartesian: [  0  0  17.1681  ]
Constructing Wigner-Seitz cell: 8 faces (6 quadrilaterals, 2 hexagons)
Range-separation parameter for embedded mesh potentials due to point charges: 0.592887 bohrs.

Initializing van der Waals corrections
	NOTE: vdW corrections apply only for interactions with fluid.
	Li:  C6:   27.93 Eh-a0^6  R0: 1.559 a0
	Ni:  C6:  187.33 Eh-a0^6  R0: 2.952 a0
	 P:  C6:  135.99 Eh-a0^6  R0: 3.222 a0
	 S:  C6:   96.61 Eh-a0^6  R0: 3.180 a0

---------- Setting up ewald sum ----------
Optimum gaussian width for ewald sums = 6.650398 bohr.
Real space sum over 605 unit cells with max indices [  5  5  2  ]
Reciprocal space sum over 6825 terms with max indices [  6  7  17  ]

---------- Allocating electronic variables ----------
Initializing wave functions:  reading from 'NbTe2.wfns'
----- createFluidSolver() ----- (Fluid-side solver setup)
   Initializing fluid molecule 'H2O'
     Initializing site 'O'
       Electron density: proportional to exp(-r/0.36935)*erfc((r-0.51523)/0.36823) with norm 6.826
       Charge density: gaussian nuclear width 0.478731 with net site charge 0.826
       Polarizability: cuspless exponential with width 0.32 and norm 3.73
       Hard sphere radius: 2.57003 bohrs
       Positions in reference frame:
         [ +0.000000 +0.000000 +0.000000 ]
     Initializing site 'H'
       Electron density: proportional to exp(-r/0.34641)*erfc((r-0)/0.390882) with norm 0.587
       Charge density: gaussian nuclear width 0.377945 with net site charge -0.413
       Polarizability: cuspless exponential with width 0.39 and norm 3.3
       Positions in reference frame:
         [ +0.000000 -1.441945 +1.122523 ]
         [ +0.000000 +1.441945 +1.122523 ]
     Net charge: 0   dipole magnitude: 0.927204
     Initializing spherical shell mfKernel with radius 2.61727 Bohr
     deltaS corrections:
       site 'O': -7.54299
       site 'H': -6.83917
   Initializing fluid molecule 'Na+'
     Initializing site 'Na'
       Electron density: proportional to exp(-r/0.19682)*erfc((r-0.71491)/0.41314) with norm 8.1383
       Charge density: gaussian nuclear width 0.365347 with net site charge -1
       Hard sphere radius: 1.86327 bohrs
       Positions in reference frame:
         [ +0.000000 +0.000000 +0.000000 ]
     Net charge: -1   dipole magnitude: 0
     Initializing gaussian mfKernel with width: 1.55004 Bohr
     deltaS corrections:
       site 'Na': -22.3555
   Initializing fluid molecule 'F-'
     Initializing site 'F'
       Electron density: proportional to exp(-r/0.38886)*erfc((r-0)/0.438782) with norm 8
       Charge density: gaussian nuclear width 0.374796 with net site charge 1
       Hard sphere radius: 2.39995 bohrs
       Positions in reference frame:
         [ +0.000000 +0.000000 +0.000000 ]
     Net charge: 1   dipole magnitude: 0
     Initializing gaussian mfKernel with width: 1.59012 Bohr
     deltaS corrections:
       site 'F': -9.04335

Correction to mu due to finite nuclear width = -0.00902008
   Cavity determined by nc: 0.00142 and sigma: 0.707107
   Nonlocal vdW cavity from gaussian model electron density with norm = 8 and sigma = 0.993594 bohr
   Charge asymmetry in cavity with sensitivity pCavity = 36.5 e-bohr/Eh
   Electrostatic cavity expanded by eta = 1.46 bohrs
   Weighted density cavitation model constrained by Nbulk: 0.0049383 bohr^-3, Pvap: 3.14029 kPa, Rvdw: 2.61727 bohr and sigmaBulk: 4.62e-05 Eh/bohr^2 at T: 298 K.
   Weighted density dispersion model using vdW pair potentials with single solvent site with sqrtC6eff: 0.77 SI.
Reading fluid state from 'NbTe2.fluidState'


---- Citations for features of the code used in this run ----

   Software package:
      R. Sundararaman, K. Letchworth-Weaver, K.A. Schwarz, D. Gunceler, Y. Ozhabes and T.A. Arias, 'JDFTx: software for joint density-functional theory', SoftwareX 6, 278 (2017)

   gga-PBE exchange-correlation functional:
      J.P. Perdew, K. Burke and M. Ernzerhof, Phys. Rev. Lett. 77, 3865 (1996)

   Pseudopotentials:
      KF Garrity, JW Bennett, KM Rabe and D Vanderbilt, Comput. Mater. Sci. 81, 446 (2014)

   Truncated Coulomb potentials:
      R. Sundararaman and T.A. Arias, Phys. Rev. B 87, 165122 (2013)

   Van der Waals correction pair-potentials:
      S. Grimme, J. Comput. Chem. 27, 1787 (2006)

   Charge-asymmetric nonlocally-determined local-electric (CANDLE) solvation model:
      R. Sundararaman and W.A. Goddard III, J. Chem. Phys. 142, 064107 (2015)

   Total energy minimization with Auxiliary Hamiltonian:
      C. Freysoldt, S. Boeck, and J. Neugebauer, Phys. Rev. B 79, 241103(R) (2009)

   Grand-canonical (fixed-potential) DFT:
      R. Sundararaman, W. A. Goddard III and T. A. Arias, J. Chem. Phys. 146, 114104 (2017)

This list may not be complete. Please suggest additional citations or
report any other bugs at https://github.com/shankar1729/jdftx/issues

Initialization completed successfully at t[s]:     18.52

Shifting auxilliary hamiltonian by 0.034758 to set nElectrons=263.000000
	Linear fluid (dielectric constant: 78.4, screening length: 5.74355 Bohr) occupying 0.759894 of unit cell:	Completed after 0 iterations at t[s]:     25.63

-------- Electronic minimization -----------
	Linear fluid (dielectric constant: 78.4, screening length: 5.74355 Bohr) occupying 0.759894 of unit cell:	Completed after 0 iterations at t[s]:     35.35
	FillingsUpdate:  mu: -0.171251800  nElectrons: 263.000000
ElecMinimize: Iter:   0  G: -962.612779513763940  |grad|_K:  5.084e-05  alpha:  1.000e+00
	Linear fluid (dielectric constant: 78.4, screening length: 5.74355 Bohr) occupying 0.815321 of unit cell:	Completed after 24 iterations at t[s]:     68.45
	Linear fluid (dielectric constant: 78.4, screening length: 5.74355 Bohr) occupying 0.760524 of unit cell:	Completed after 22 iterations at t[s]:     92.52
	FillingsUpdate:  mu: -0.171251800  nElectrons: 263.385715
	SubspaceRotationAdjust: set factor to 0.575
ElecMinimize: Iter:   1  G: -962.620351945443531  |grad|_K:  2.770e-05  alpha:  4.182e-02  linmin: -2.696e-03  t[s]:    113.58
	Linear fluid (dielectric constant: 78.4, screening length: 5.74355 Bohr) occupying 0.761371 of unit cell:	Completed after 14 iterations at t[s]:    128.65
	Linear fluid (dielectric constant: 78.4, screening length: 5.74355 Bohr) occupying 0.763315 of unit cell:	Completed after 16 iterations at t[s]:    151.42
	FillingsUpdate:  mu: -0.171251800  nElectrons: 263.798867
	SubspaceRotationAdjust: set factor to 0.409
ElecMinimize: Iter:   2  G: -962.625852346302054  |grad|_K:  1.851e-05  alpha:  1.020e-01  linmin: -2.205e-04  t[s]:    172.02
	Linear fluid (dielectric constant: 78.4, screening length: 5.74355 Bohr) occupying 0.764602 of unit cell:	Completed after 14 iterations at t[s]:    186.31
	Linear fluid (dielectric constant: 78.4, screening length: 5.74355 Bohr) occupying 0.765316 of unit cell:	Completed after 11 iterations at t[s]:    205.18
	FillingsUpdate:  mu: -0.171251800  nElectrons: 264.005408
	SubspaceRotationAdjust: set factor to 0.391
ElecMinimize: Iter:   3  G: -962.629124709701728  |grad|_K:  1.412e-05  alpha:  1.537e-01  linmin: -1.219e-05  t[s]:    223.79
	Linear fluid (dielectric constant: 78.4, screening length: 5.74355 Bohr) occupying 0.767272 of unit cell:	Completed after 16 iterations at t[s]:    238.70
	Linear fluid (dielectric constant: 78.4, screening length: 5.74355 Bohr) occupying 0.769180 of unit cell:	Completed after 16 iterations at t[s]:    259.88
	FillingsUpdate:  mu: -0.171251800  nElectrons: 264.328109
	SubspaceRotationAdjust: set factor to 0.268
ElecMinimize: Iter:   4  G: -962.632518739512761  |grad|_K:  2.005e-05  alpha:  2.847e-01  linmin:  1.622e-04  t[s]:    280.04
	Linear fluid (dielectric constant: 78.4, screening length: 5.74355 Bohr) occupying 0.774186 of unit cell:	Completed after 20 iterations at t[s]:    296.56
	Linear fluid (dielectric constant: 78.4, screening length: 5.74355 Bohr) occupying 0.771263 of unit cell:	Completed after 18 iterations at t[s]:    315.06
	FillingsUpdate:  mu: -0.171251800  nElectrons: 264.502974
	SubspaceRotationAdjust: set factor to 0.377
ElecMinimize: Iter:   5  G: -962.635520162446483  |grad|_K:  8.494e-06  alpha:  1.230e-01  linmin: -1.189e-04  t[s]:    323.98
	Linear fluid (dielectric constant: 78.4, screening length: 5.74355 Bohr) occupying 0.771507 of unit cell:	Completed after 12 iterations at t[s]:    332.18
	Linear fluid (dielectric constant: 78.4, screening length: 5.74355 Bohr) occupying 0.771807 of unit cell:	Completed after 13 iterations at t[s]:    340.38
	FillingsUpdate:  mu: -0.171251800  nElectrons: 264.562814
	SubspaceRotationAdjust: set factor to 0.232
ElecMinimize: Iter:   6  G: -962.636729021619999  |grad|_K:  1.261e-05  alpha:  2.711e-01  linmin:  3.331e-05  t[s]:    346.84
	Linear fluid (dielectric constant: 78.4, screening length: 5.74355 Bohr) occupying 0.776701 of unit cell:	Completed after 18 iterations at t[s]:    354.75
	Linear fluid (dielectric constant: 78.4, screening length: 5.74355 Bohr) occupying 0.773928 of unit cell:	Completed after 16 iterations at t[s]:    370.96
	FillingsUpdate:  mu: -0.171251800  nElectrons: 264.718744
	SubspaceRotationAdjust: set factor to 0.378
ElecMinimize: Iter:   7  G: -962.637897409469019  |grad|_K:  4.963e-06  alpha:  1.202e-01  linmin: -6.575e-05  t[s]:    390.03
	Linear fluid (dielectric constant: 78.4, screening length: 5.74355 Bohr) occupying 0.774217 of unit cell:	Completed after 9 iterations at t[s]:    402.36
	Linear fluid (dielectric constant: 78.4, screening length: 5.74355 Bohr) occupying 0.774498 of unit cell:	Completed after 10 iterations at t[s]:    416.53
	FillingsUpdate:  mu: -0.171251800  nElectrons: 264.765880
	SubspaceRotationAdjust: set factor to 0.248
ElecMinimize: Iter:   8  G: -962.638251830356808  |grad|_K:  6.954e-06  alpha:  2.358e-01  linmin:  2.019e-05  t[s]:    430.40
	Linear fluid (dielectric constant: 78.4, screening length: 5.74355 Bohr) occupying 0.773278 of unit cell:	Completed after 17 iterations at t[s]:    441.90
	Linear fluid (dielectric constant: 78.4, screening length: 5.74355 Bohr) occupying 0.773740 of unit cell:	Completed after 14 iterations at t[s]:    459.72
	FillingsUpdate:  mu: -0.171251800  nElectrons: 264.740189
	SubspaceRotationAdjust: set factor to 0.287
ElecMinimize: Iter:   9  G: -962.638681262302157  |grad|_K:  3.735e-06  alpha:  1.466e-01  linmin:  2.377e-06  t[s]:    477.76
	Linear fluid (dielectric constant: 78.4, screening length: 5.74355 Bohr) occupying 0.773386 of unit cell:	Completed after 11 iterations at t[s]:    488.94
	Linear fluid (dielectric constant: 78.4, screening length: 5.74355 Bohr) occupying 0.773269 of unit cell:	Completed after 8 iterations at t[s]:    504.95
	FillingsUpdate:  mu: -0.171251800  nElectrons: 264.721089
	SubspaceRotationAdjust: set factor to 0.226
ElecMinimize: Iter:  10  G: -962.638845870895807  |grad|_K:  3.482e-06  alpha:  1.946e-01  linmin: -1.481e-05  t[s]:    520.42
	Linear fluid (dielectric constant: 78.4, screening length: 5.74355 Bohr) occupying 0.773589 of unit cell:	Completed after 12 iterations at t[s]:    533.46
	Linear fluid (dielectric constant: 78.4, screening length: 5.74355 Bohr) occupying 0.773576 of unit cell:	Completed after 2 iterations at t[s]:    547.85
	FillingsUpdate:  mu: -0.171251800  nElectrons: 264.746650
	SubspaceRotationAdjust: set factor to 0.207
ElecMinimize: Iter:  11  G: -962.638983303391115  |grad|_K:  2.917e-06  alpha:  1.867e-01  linmin:  5.282e-05  t[s]:    556.77
	Linear fluid (dielectric constant: 78.4, screening length: 5.74355 Bohr) occupying 0.773789 of unit cell:	Completed after 12 iterations at t[s]:    567.56
	Linear fluid (dielectric constant: 78.4, screening length: 5.74355 Bohr) occupying 0.773795 of unit cell:	Completed after 0 iterations at t[s]:    573.22
	FillingsUpdate:  mu: -0.171251800  nElectrons: 264.764860
	SubspaceRotationAdjust: set factor to 0.264
ElecMinimize: Iter:  12  G: -962.639082161265833  |grad|_K:  1.833e-06  alpha:  1.925e-01  linmin: -2.416e-04  t[s]:    579.22
	Linear fluid (dielectric constant: 78.4, screening length: 5.74355 Bohr) occupying 0.773604 of unit cell:	Completed after 9 iterations at t[s]:    587.13
	Linear fluid (dielectric constant: 78.4, screening length: 5.74355 Bohr) occupying 0.773585 of unit cell:	Completed after 2 iterations at t[s]:    597.16
	FillingsUpdate:  mu: -0.171251800  nElectrons: 264.754653
	SubspaceRotationAdjust: set factor to 0.235
ElecMinimize: Iter:  13  G: -962.639125993652328  |grad|_K:  1.902e-06  alpha:  2.115e-01  linmin: -1.411e-04  t[s]:    608.42
	Linear fluid (dielectric constant: 78.4, screening length: 5.74355 Bohr) occupying 0.773350 of unit cell:	Completed after 9 iterations at t[s]:    617.48
	Linear fluid (dielectric constant: 78.4, screening length: 5.74355 Bohr) occupying 0.773355 of unit cell:	Completed after 0 iterations at t[s]:    627.80
	FillingsUpdate:  mu: -0.171251800  nElectrons: 264.743031
	SubspaceRotationAdjust: set factor to 0.284
ElecMinimize: Iter:  14  G: -962.639172032196370  |grad|_K:  1.206e-06  alpha:  2.070e-01  linmin:  6.883e-05  t[s]:    641.86
	Linear fluid (dielectric constant: 78.4, screening length: 5.74355 Bohr) occupying 0.773365 of unit cell:	Completed after 3 iterations at t[s]:    651.33
	Linear fluid (dielectric constant: 78.4, screening length: 5.74355 Bohr) occupying 0.773364 of unit cell:	Completed after 0 iterations at t[s]:    661.27
	FillingsUpdate:  mu: -0.171251800  nElectrons: 264.743746
	SubspaceRotationAdjust: set factor to 0.267
ElecMinimize: Iter:  15  G: -962.639188997578231  |grad|_K:  1.172e-06  alpha:  1.927e-01  linmin:  2.716e-04  t[s]:    672.21
	Linear fluid (dielectric constant: 78.4, screening length: 5.74355 Bohr) occupying 0.773285 of unit cell:	Completed after 3 iterations at t[s]:    680.62
	Linear fluid (dielectric constant: 78.4, screening length: 5.74355 Bohr) occupying 0.773286 of unit cell:	Completed after 0 iterations at t[s]:    692.41
	FillingsUpdate:  mu: -0.171251800  nElectrons: 264.738808
	SubspaceRotationAdjust: set factor to 0.244
ElecMinimize: Iter:  16  G: -962.639204261454665  |grad|_K:  8.524e-07  alpha:  1.892e-01  linmin: -1.251e-04  t[s]:    704.60
	Linear fluid (dielectric constant: 78.4, screening length: 5.74355 Bohr) occupying 0.773258 of unit cell:	Completed after 3 iterations at t[s]:    713.98
	Linear fluid (dielectric constant: 78.4, screening length: 5.74355 Bohr) occupying 0.773256 of unit cell:	Completed after 0 iterations at t[s]:    721.68
	FillingsUpdate:  mu: -0.171251800  nElectrons: 264.736393
	SubspaceRotationAdjust: set factor to 0.289
ElecMinimize: Iter:  17  G: -962.639213317174836  |grad|_K:  6.919e-07  alpha:  2.026e-01  linmin: -6.533e-05  t[s]:    729.34
	Linear fluid (dielectric constant: 78.4, screening length: 5.74355 Bohr) occupying 0.773265 of unit cell:	Completed after 2 iterations at t[s]:    735.62
	Linear fluid (dielectric constant: 78.4, screening length: 5.74355 Bohr) occupying 0.773265 of unit cell:	Completed after 0 iterations at t[s]:    741.77
	FillingsUpdate:  mu: -0.171251800  nElectrons: 264.736230
	SubspaceRotationAdjust: set factor to 0.261
ElecMinimize: Iter:  18  G: -962.639218940072396  |grad|_K:  5.678e-07  alpha:  1.921e-01  linmin:  4.807e-05  t[s]:    748.54
	Linear fluid (dielectric constant: 78.4, screening length: 5.74355 Bohr) occupying 0.773226 of unit cell:	Completed after 3 iterations at t[s]:    755.84
	Linear fluid (dielectric constant: 78.4, screening length: 5.74355 Bohr) occupying 0.773228 of unit cell:	Completed after 0 iterations at t[s]:    762.21
	FillingsUpdate:  mu: -0.171251800  nElectrons: 264.733358
	SubspaceRotationAdjust: set factor to 0.251
ElecMinimize: Iter:  19  G: -962.639222538152126  |grad|_K:  4.858e-07  alpha:  1.854e-01  linmin: -8.788e-05  t[s]:    769.83
	Linear fluid (dielectric constant: 78.4, screening length: 5.74355 Bohr) occupying 0.773199 of unit cell:	Completed after 2 iterations at t[s]:    775.04
	Linear fluid (dielectric constant: 78.4, screening length: 5.74355 Bohr) occupying 0.773194 of unit cell:	Completed after 0 iterations at t[s]:    785.17
	FillingsUpdate:  mu: -0.171251800  nElectrons: 264.730548
	SubspaceRotationAdjust: set factor to 0.3
ElecMinimize: Iter:  20  G: -962.639225802270630  |grad|_K:  3.347e-07  alpha:  2.235e-01  linmin: -2.277e-04  t[s]:    792.82
	Linear fluid (dielectric constant: 78.4, screening length: 5.74355 Bohr) occupying 0.773164 of unit cell:	Completed after 2 iterations at t[s]:    798.94
	Linear fluid (dielectric constant: 78.4, screening length: 5.74355 Bohr) occupying 0.773163 of unit cell:	Completed after 0 iterations at t[s]:    805.87
	FillingsUpdate:  mu: -0.171251800  nElectrons: 264.728200
	SubspaceRotationAdjust: set factor to 0.303
ElecMinimize: Iter:  21  G: -962.639227453726903  |grad|_K:  2.780e-07  alpha:  2.359e-01  linmin: -1.102e-04  t[s]:    820.40
	Linear fluid (dielectric constant: 78.4, screening length: 5.74355 Bohr) occupying 0.773119 of unit cell:	Completed after 2 iterations at t[s]:    832.05
	Linear fluid (dielectric constant: 78.4, screening length: 5.74355 Bohr) occupying 0.773120 of unit cell:	Completed after 0 iterations at t[s]:    845.83
	FillingsUpdate:  mu: -0.171251800  nElectrons: 264.725203
	SubspaceRotationAdjust: set factor to 0.29
ElecMinimize: Iter:  22  G: -962.639228546502636  |grad|_K:  2.777e-07  alpha:  2.287e-01  linmin:  5.142e-05  t[s]:    861.58
	Linear fluid (dielectric constant: 78.4, screening length: 5.74355 Bohr) occupying 0.773126 of unit cell:	Completed after 2 iterations at t[s]:    872.05
	Linear fluid (dielectric constant: 78.4, screening length: 5.74355 Bohr) occupying 0.773125 of unit cell:	Completed after 0 iterations at t[s]:    883.91
	FillingsUpdate:  mu: -0.171251800  nElectrons: 264.724956
	SubspaceRotationAdjust: set factor to 0.291
ElecMinimize: Iter:  23  G: -962.639229497626616  |grad|_K:  1.748e-07  alpha:  2.053e-01  linmin:  1.111e-04  t[s]:    899.14
	Linear fluid (dielectric constant: 78.4, screening length: 5.74355 Bohr) occupying 0.773119 of unit cell:	Completed after 0 iterations at t[s]:    908.65
	Linear fluid (dielectric constant: 78.4, screening length: 5.74355 Bohr) occupying 0.773116 of unit cell:	Completed after 1 iterations at t[s]:    919.97
	FillingsUpdate:  mu: -0.171251800  nElectrons: 264.723934
	SubspaceRotationAdjust: set factor to 0.299
ElecMinimize: Iter:  24  G: -962.639229927649467  |grad|_K:  1.996e-07  alpha:  3.186e-01  linmin:  7.943e-04  t[s]:    932.73
	Linear fluid (dielectric constant: 78.4, screening length: 5.74355 Bohr) occupying 0.773085 of unit cell:	Completed after 2 iterations at t[s]:    942.08
	Linear fluid (dielectric constant: 78.4, screening length: 5.74355 Bohr) occupying 0.773098 of unit cell:	Completed after 0 iterations at t[s]:    953.30
	FillingsUpdate:  mu: -0.171251800  nElectrons: 264.722535
	SubspaceRotationAdjust: set factor to 0.271
ElecMinimize: Iter:  25  G: -962.639230301699172  |grad|_K:  1.581e-07  alpha:  1.812e-01  linmin:  3.686e-04  t[s]:    968.75
	Linear fluid (dielectric constant: 78.4, screening length: 5.74355 Bohr) occupying 0.773104 of unit cell:	Completed after 2 iterations at t[s]:    981.08
	Linear fluid (dielectric constant: 78.4, screening length: 5.74355 Bohr) occupying 0.773102 of unit cell:	Completed after 0 iterations at t[s]:    994.26
	FillingsUpdate:  mu: -0.171251800  nElectrons: 264.722540
	SubspaceRotationAdjust: set factor to 0.215
ElecMinimize: Iter:  26  G: -962.639230439562425  |grad|_K:  1.359e-07  alpha:  1.182e-01  linmin:  6.747e-08  t[s]:   1009.28
	Linear fluid (dielectric constant: 78.4, screening length: 5.74355 Bohr) occupying 0.773092 of unit cell:	Completed after 0 iterations at t[s]:   1020.75
	Linear fluid (dielectric constant: 78.4, screening length: 5.74355 Bohr) occupying 0.773086 of unit cell:	Completed after 1 iterations at t[s]:   1034.85
	FillingsUpdate:  mu: -0.171251800  nElectrons: 264.721382
	SubspaceRotationAdjust: set factor to 0.243
ElecMinimize: Iter:  27  G: -962.639230609248671  |grad|_K:  9.742e-08  alpha:  1.890e-01  linmin:  3.100e-04  t[s]:   1048.23
	Linear fluid (dielectric constant: 78.4, screening length: 5.74355 Bohr) occupying 0.773074 of unit cell:	Completed after 0 iterations at t[s]:   1055.75
	Linear fluid (dielectric constant: 78.4, screening length: 5.74355 Bohr) occupying 0.773072 of unit cell:	Completed after 0 iterations at t[s]:   1064.39
	FillingsUpdate:  mu: -0.171251800  nElectrons: 264.720360
	SubspaceRotationAdjust: set factor to 0.282
ElecMinimize: Iter:  28  G: -962.639230723289074  |grad|_K:  8.301e-08  alpha:  2.278e-01  linmin: -5.733e-04  t[s]:   1072.76
	Linear fluid (dielectric constant: 78.4, screening length: 5.74355 Bohr) occupying 0.773058 of unit cell:	Completed after 2 iterations at t[s]:   1081.05
	Linear fluid (dielectric constant: 78.4, screening length: 5.74355 Bohr) occupying 0.773065 of unit cell:	Completed after 0 iterations at t[s]:   1087.89
	FillingsUpdate:  mu: -0.171251800  nElectrons: 264.719930
	SubspaceRotationAdjust: set factor to 0.223
ElecMinimize: Iter:  29  G: -962.639230742319000  |grad|_K:  1.315e-07  alpha:  1.061e-01  linmin:  2.761e-04  t[s]:   1094.21
	Linear fluid (dielectric constant: 78.4, screening length: 5.74355 Bohr) occupying 0.773065 of unit cell:	Completed after 0 iterations at t[s]:   1098.64
	Linear fluid (dielectric constant: 78.4, screening length: 5.74355 Bohr) occupying 0.773065 of unit cell:	Completed after 0 iterations at t[s]:   1106.04
	FillingsUpdate:  mu: -0.171251800  nElectrons: 264.719838
	SubspaceRotationAdjust: set factor to 0.234
ElecMinimize: Iter:  30  G: -962.639230812718665  |grad|_K:  1.354e-07  alpha:  7.410e-02  linmin:  2.379e-08  t[s]:   1117.38
	Linear fluid (dielectric constant: 78.4, screening length: 5.74355 Bohr) occupying 0.773075 of unit cell:	Completed after 2 iterations at t[s]:   1126.30
	Linear fluid (dielectric constant: 78.4, screening length: 5.74355 Bohr) occupying 0.773068 of unit cell:	Completed after 1 iterations at t[s]:   1137.70
ElecMinimize: 	Step increased G by 2.869820e-08, reducing alpha to 1.727528e-03.
	Linear fluid (dielectric constant: 78.4, screening length: 5.74355 Bohr) occupying 0.773066 of unit cell:	Completed after 0 iterations at t[s]:   1160.10
ElecMinimize: 	Step increased G by 1.463832e-08, reducing alpha to 1.727528e-04.
	Linear fluid (dielectric constant: 78.4, screening length: 5.74355 Bohr) occupying 0.773065 of unit cell:	Completed after 0 iterations at t[s]:   1180.47
ElecMinimize: 	Step increased G by 1.253545e-08, reducing alpha to 1.727528e-05.
ElecMinimize: 	Step failed to reduce G after 3 attempts. Quitting step.
ElecMinimize: 	Undoing step.
	Linear fluid (dielectric constant: 78.4, screening length: 5.74355 Bohr) occupying 0.773065 of unit cell:	Completed after 0 iterations at t[s]:   1201.54
ElecMinimize: 	Step failed: resetting search direction.
	FillingsUpdate:  mu: -0.171251800  nElectrons: 264.719839
	SubspaceRotationAdjust: set factor to 0.207
ElecMinimize: Iter:  31  G: -962.639230800194809  |grad|_K:  1.179e-07  alpha:  1.728e-05
	Linear fluid (dielectric constant: 78.4, screening length: 5.74355 Bohr) occupying 0.773064 of unit cell:	Completed after 2 iterations at t[s]:   1224.00
	Linear fluid (dielectric constant: 78.4, screening length: 5.74355 Bohr) occupying 0.773064 of unit cell:	Completed after 0 iterations at t[s]:   1235.60
	FillingsUpdate:  mu: -0.171251800  nElectrons: 264.719783
	SubspaceRotationAdjust: set factor to 0.168
ElecMinimize: Iter:  32  G: -962.639230806038995  |grad|_K:  8.230e-08  alpha:  4.178e-02  linmin: -4.074e-03  t[s]:   1248.40
	Linear fluid (dielectric constant: 78.4, screening length: 5.74355 Bohr) occupying 0.773067 of unit cell:	Completed after 0 iterations at t[s]:   1256.72
ElecMinimize: 	Predicted alpha/alphaT>3.000000, increasing alphaT to 1.253505e-01.
	Linear fluid (dielectric constant: 78.4, screening length: 5.74355 Bohr) occupying 0.773071 of unit cell:	Completed after 0 iterations at t[s]:   1267.80
	Linear fluid (dielectric constant: 78.4, screening length: 5.74355 Bohr) occupying 0.773071 of unit cell:	Completed after 0 iterations at t[s]:   1279.53
	FillingsUpdate:  mu: -0.171251800  nElectrons: 264.720187
	SubspaceRotationAdjust: set factor to 0.221
ElecMinimize: Iter:  33  G: -962.639230874478812  |grad|_K:  7.766e-08  alpha:  1.378e-01  linmin:  7.028e-07  t[s]:   1294.25
	Linear fluid (dielectric constant: 78.4, screening length: 5.74355 Bohr) occupying 0.773085 of unit cell:	Completed after 1 iterations at t[s]:   1303.23
	Linear fluid (dielectric constant: 78.4, screening length: 5.74355 Bohr) occupying 0.773076 of unit cell:	Completed after 0 iterations at t[s]:   1312.28
ElecMinimize: 	Step increased G by 5.088282e-09, reducing alpha to 4.606669e-03.
	Linear fluid (dielectric constant: 78.4, screening length: 5.74355 Bohr) occupying 0.773072 of unit cell:	Completed after 0 iterations at t[s]:   1324.96
	FillingsUpdate:  mu: -0.171251800  nElectrons: 264.720214
	SubspaceRotationAdjust: set factor to 0.179
ElecMinimize: Iter:  34  G: -962.639230888079965  |grad|_K:  8.409e-08  alpha:  4.607e-03  linmin:  2.404e-03  t[s]:   1332.42
	Linear fluid (dielectric constant: 78.4, screening length: 5.74355 Bohr) occupying 0.773072 of unit cell:	Completed after 0 iterations at t[s]:   1337.47
ElecMinimize: 	Predicted alpha/alphaT>3.000000, increasing alphaT to 1.382001e-02.
	Linear fluid (dielectric constant: 78.4, screening length: 5.74355 Bohr) occupying 0.773073 of unit cell:	Completed after 0 iterations at t[s]:   1344.12
ElecMinimize: 	Predicted alpha/alphaT>3.000000, increasing alphaT to 4.146002e-02.
	Linear fluid (dielectric constant: 78.4, screening length: 5.74355 Bohr) occupying 0.773074 of unit cell:	Completed after 0 iterations at t[s]:   1351.57
	Linear fluid (dielectric constant: 78.4, screening length: 5.74355 Bohr) occupying 0.773077 of unit cell:	Completed after 0 iterations at t[s]:   1360.24
	FillingsUpdate:  mu: -0.171251800  nElectrons: 264.720505
	SubspaceRotationAdjust: set factor to 0.266
ElecMinimize: Iter:  35  G: -962.639230903344810  |grad|_K:  7.019e-08  alpha:  8.192e-02  linmin: -5.440e-09  t[s]:   1370.17
	Linear fluid (dielectric constant: 78.4, screening length: 5.74355 Bohr) occupying 0.773077 of unit cell:	Completed after 0 iterations at t[s]:   1377.25
	Linear fluid (dielectric constant: 78.4, screening length: 5.74355 Bohr) occupying 0.773077 of unit cell:	Completed after 1 iterations at t[s]:   1388.57
ElecMinimize: 	Step increased G by 2.535785e-09, reducing alpha to 1.748053e-02.
	Linear fluid (dielectric constant: 78.4, screening length: 5.74355 Bohr) occupying 0.773077 of unit cell:	Completed after 0 iterations at t[s]:   1407.80
	FillingsUpdate:  mu: -0.171251800  nElectrons: 264.720505
	SubspaceRotationAdjust: set factor to 0.327
ElecMinimize: Iter:  36  G: -962.639230906291573  |grad|_K:  4.075e-08  alpha:  1.748e-02  linmin: -1.484e-03  t[s]:   1419.17
	Linear fluid (dielectric constant: 78.4, screening length: 5.74355 Bohr) occupying 0.773077 of unit cell:	Completed after 0 iterations at t[s]:   1427.25
ElecMinimize: 	Predicted alpha/alphaT>3.000000, increasing alphaT to 5.244160e-02.
	Linear fluid (dielectric constant: 78.4, screening length: 5.74355 Bohr) occupying 0.773076 of unit cell:	Completed after 0 iterations at t[s]:   1436.66
ElecMinimize: 	Predicted alpha/alphaT>3.000000, increasing alphaT to 1.573248e-01.
	Linear fluid (dielectric constant: 78.4, screening length: 5.74355 Bohr) occupying 0.773075 of unit cell:	Completed after 0 iterations at t[s]:   1446.38
	Linear fluid (dielectric constant: 78.4, screening length: 5.74355 Bohr) occupying 0.773075 of unit cell:	Completed after 0 iterations at t[s]:   1455.94
	FillingsUpdate:  mu: -0.171251800  nElectrons: 264.720393
	SubspaceRotationAdjust: set factor to 0.4
ElecMinimize: Iter:  37  G: -962.639230930238909  |grad|_K:  3.329e-08  alpha:  1.708e-01  linmin: -3.027e-06  t[s]:   1468.22
	Linear fluid (dielectric constant: 78.4, screening length: 5.74355 Bohr) occupying 0.773071 of unit cell:	Completed after 0 iterations at t[s]:   1477.24
	Linear fluid (dielectric constant: 78.4, screening length: 5.74355 Bohr) occupying 0.773069 of unit cell:	Completed after 0 iterations at t[s]:   1488.76
	FillingsUpdate:  mu: -0.171251800  nElectrons: 264.720062
	SubspaceRotationAdjust: set factor to 0.462
ElecMinimize: Iter:  38  G: -962.639230946105840  |grad|_K:  4.371e-08  alpha:  2.361e-01  linmin:  1.598e-06  t[s]:   1502.57
	Linear fluid (dielectric constant: 78.4, screening length: 5.74355 Bohr) occupying 0.773053 of unit cell:	Completed after 2 iterations at t[s]:   1512.08
	Linear fluid (dielectric constant: 78.4, screening length: 5.74355 Bohr) occupying 0.773067 of unit cell:	Completed after 0 iterations at t[s]:   1523.11
ElecMinimize: 	Step increased G by 3.346827e-09, reducing alpha to 3.706790e-03.
	Linear fluid (dielectric constant: 78.4, screening length: 5.74355 Bohr) occupying 0.773069 of unit cell:	Completed after 0 iterations at t[s]:   1543.59
	FillingsUpdate:  mu: -0.171251800  nElectrons: 264.720047
	SubspaceRotationAdjust: set factor to 0.283
ElecMinimize: Iter:  39  G: -962.639230960500299  |grad|_K:  1.690e-07  alpha:  3.707e-03  linmin:  1.080e-03  t[s]:   1552.81
ElecMinimize: 	Bad step direction: g.d > 0.
ElecMinimize: 	Undoing step.
	Linear fluid (dielectric constant: 78.4, screening length: 5.74355 Bohr) occupying 0.773069 of unit cell:	Completed after 0 iterations at t[s]:   1559.32
ElecMinimize: 	Step failed: resetting search direction.
	FillingsUpdate:  mu: -0.171251800  nElectrons: 264.720047
	SubspaceRotationAdjust: set factor to 0.193
ElecMinimize: Iter:  40  G: -962.639230960507575  |grad|_K:  1.396e-07  alpha:  0.000e+00
	Linear fluid (dielectric constant: 78.4, screening length: 5.74355 Bohr) occupying 0.773070 of unit cell:	Completed after 0 iterations at t[s]:   1574.00
ElecMinimize: 	Predicted alpha/alphaT>3.000000, increasing alphaT to 1.112037e-02.
	Linear fluid (dielectric constant: 78.4, screening length: 5.74355 Bohr) occupying 0.773071 of unit cell:	Completed after 0 iterations at t[s]:   1580.51
ElecMinimize: 	Predicted alpha/alphaT>3.000000, increasing alphaT to 3.336111e-02.
	Linear fluid (dielectric constant: 78.4, screening length: 5.74355 Bohr) occupying 0.773075 of unit cell:	Completed after 1 iterations at t[s]:   1586.36
	Linear fluid (dielectric constant: 78.4, screening length: 5.74355 Bohr) occupying 0.773072 of unit cell:	Completed after 0 iterations at t[s]:   1592.66
ElecMinimize: 	Step increased G by 2.486479e-08, reducing alpha to 1.392494e-03.
	Linear fluid (dielectric constant: 78.4, screening length: 5.74355 Bohr) occupying 0.773069 of unit cell:	Completed after 0 iterations at t[s]:   1605.21
ElecMinimize: 	Step increased G by 3.093089e-08, reducing alpha to 1.392494e-04.
	Linear fluid (dielectric constant: 78.4, screening length: 5.74355 Bohr) occupying 0.773069 of unit cell:	Completed after 0 iterations at t[s]:   1621.56
ElecMinimize: 	Step increased G by 3.154332e-08, reducing alpha to 1.392494e-05.
ElecMinimize: 	Step failed to reduce G after 3 attempts. Quitting step.
ElecMinimize: 	Undoing step.
	Linear fluid (dielectric constant: 78.4, screening length: 5.74355 Bohr) occupying 0.773069 of unit cell:	Completed after 0 iterations at t[s]:   1642.11
ElecMinimize: 	Step failed along negative gradient direction.
ElecMinimize: Probably at roundoff error limit. (Stopping)
Setting wave functions to eigenvectors of Hamiltonian

# Ionic positions in lattice coordinates:
ion Li   0.333999930863447   0.334499685284467   0.497707429953407 0
ion Li   0.831590507058168   0.334283409219119   0.498484362126442 0
ion Li   0.334657564649104   0.831043976612993   0.498168497957380 0
ion Li   0.833366377293396   0.833287519990771   0.498712247494613 0
ion Ni   0.167135976856994   0.165767513206287   0.498654374917615 0
ion Ni   0.666534886220947   0.167190422763291   0.498662391815860 0
ion Ni   0.166943772957093   0.666381528862130   0.498731424727690 0
ion Ni   0.666517065896414   0.666723579034103   0.498518424186501 0
ion P  -0.002342977355621   0.502378758286854   0.438589846621640 0
ion P  -0.000189624245169   0.502184915448700   0.558273644453774 0
ion P   0.500083632504714   0.499917077183165   0.498207448132237 0
ion P   0.501935166328370  -0.002171216278450   0.557911674867947 0
ion P   0.000682700565857  -0.002762834879629   0.439296578232414 0
ion P  -0.001909543073239  -0.000543082785519   0.558841968237891 0
ion P   0.502467999266034  -0.000229191041177   0.438356183112401 0
ion S   0.016982310227966   0.324600913339834   0.585667651463139 0
ion S   0.323280345799697   0.159081954421856   0.584422850660488 0
ion S   0.018464719410322   0.158012608141325   0.412290887680008 0
ion S   0.157534762537651   0.324877574629722   0.410859482608816 0
ion S   0.323998889416408   0.017483417289293   0.410941790247117 0
ion S   0.159467629234941   0.016591802866656   0.585877383133040 0
ion S   0.518614152046680   0.338509916695553   0.568923504477935 0
ion S   0.818643677973330   0.165245102096427   0.583168172121696 0
ion S   0.516576555708803   0.165238413121412   0.413902274909477 0
ion S   0.643301557561234   0.338193333467462   0.427725362879323 0
ion S   0.823586520010163   0.014958794811554   0.411136568962391 0
ion S   0.661406101536330   0.015458208532529   0.586143211461370 0
ion S   0.014399533382588   0.823314301659302   0.586366141600067 0
ion S   0.338819573855083   0.642655902283965   0.569132853429300 0
ion S   0.014379706917836   0.662159232929015   0.411176069496638 0
ion S   0.165796881708685   0.818176037126068   0.414349368142423 0
ion S   0.337782797573434   0.518816368722332   0.427688808588499 0
ion S   0.165956978117009   0.516298546501034   0.582914412918060 0
ion S   0.515663270976261   0.818786474794797   0.582819779456368 0
ion S   0.823304223817907   0.661993615341249   0.585953010614387 0
ion S   0.518676085964042   0.642962763604142   0.427553796478842 0
ion S   0.662131720156915   0.823588010345055   0.410832204901996 0
ion S   0.817223063450072   0.516802660432892   0.414047592985254 0
ion S   0.643225079830126   0.518823033939475   0.568990340945557 0


# Forces in Lattice coordinates:
force Li  -0.005759333249479  -0.006590606832551   0.004511458587141 0
force Li   0.005595297484752  -0.000775410629396   0.002128736413739 0
force Li   0.000215968472211   0.005705695935818   0.003524250506023 0
force Li  -0.000462372591526   0.000355577025767  -0.001674669172735 0
force Ni   0.002838069077638   0.002852637669406  -0.042224182005461 0
force Ni   0.003770903102502   0.064671300835346  -0.045709664826075 0
force Ni   0.057746054248714   0.002867485523334  -0.039112414115006 0
force Ni  -0.058452494265261  -0.059275290219917  -0.040309345285998 0
force P  -0.078087378133646  -0.085533484753417  -0.122947575080956 0
force P   0.073749637797089  -0.010889258203099   0.125305871030022 0
force P   0.002664742512404   0.000773001779251   0.005330133847290 0
force P  -0.085917341780041  -0.063794100032995   0.129731533014491 0
force P   0.082500091601762   0.023328546858000  -0.135620807895834 0
force P   0.018855206159197   0.085173088539979   0.127660238371480 0
force P  -0.008050559995165   0.070985197420717  -0.130458992407406 0
force S  -0.032078178259671  -0.008588465175315   0.003864653572632 0
force S   0.033070616584208   0.031358162652602   0.013370825280314 0
force S  -0.032085102208462   0.003850640538354  -0.001066531267989 0
force S   0.036638833954258   0.020530483855265   0.002111725073898 0
force S  -0.014679205574408  -0.034558372549815   0.001713068030154 0
force S   0.003880714817619  -0.021905623854651   0.004575753244124 0
force S  -0.061201725607384  -0.067041028860872   0.005829698324972 0
force S   0.090206305763619  -0.000491158294619   0.067028759507637 0
force S  -0.087659653014885  -0.088569460229126  -0.062563803106845 0
force S   0.056300529699559  -0.011011765843316   0.005861457977689 0
force S  -0.058966049723106  -0.023400491194730   0.001985481699851 0
force S   0.052013548612219   0.030913223362101  -0.003507676637152 0
force S  -0.018909233253804  -0.054006319943388  -0.000963513667414 0
force S  -0.006814310759239   0.059111621736957   0.000908067287138 0
force S   0.037549459183098   0.058794300702297   0.001817374545783 0
force S   0.000039414970101   0.088602939416576  -0.061956330015268 0
force S  -0.065282099666036  -0.057984544130044   0.000591211252504 0
force S  -0.096564509139298  -0.096241310553279   0.062643009780867 0
force S   0.001683109004909   0.091092900688610   0.062892884786847 0
force S  -0.032221593471151   0.018575495008551  -0.003978893952177 0
force S   0.007338949545096   0.065904036243309   0.007306918743652 0
force S   0.023117267753080  -0.034305457360456   0.001124198493768 0
force S   0.097387095521399   0.001281369466793  -0.060316370543710 0
force S   0.064647924464241   0.005219985795567   0.005105656067630 0

# Energy components:
   A_diel =       -0.2220675525112066
   Eewald =     4045.3698706208760996
       EH =     4958.6181655760128706
     Eloc =   -10218.9448402052148595
      Enl =      146.3225852765764330
      Exc =     -200.5831994894132890
 Exc_core =       51.8512317736000270
       KE =      209.6650785223107505
  MuShift =       -0.0155149673598415
-------------------------------------
     Etot =    -1007.9386904451243936
       TS =        0.0343251856626853
-------------------------------------
        F =    -1007.9730156307871312
      muN =      -45.3337847018326059
-------------------------------------
        G =     -962.6392309289544755

IonicMinimize: Iter:   0  G: -962.639230928954476  |grad|_K:  0.000e+00  t[s]:   1670.28
IonicMinimize: Converged (|grad|_K<1.000000e-04).

#--- Lowdin population analysis ---
# oxidation-state Li -0.497 -0.497 -0.498 -0.478
# oxidation-state Ni -0.361 -0.446 -0.446 -0.446
# oxidation-state P +0.728 +0.727 +0.880 +0.726 +0.727 +0.728 +0.728
# oxidation-state S -0.044 -0.028 -0.030 -0.047 -0.041 -0.040 +0.000 +0.003 +0.003 -0.001 -0.045 -0.043 -0.046 +0.001 -0.044 +0.004 +0.001 +0.005 +0.002 -0.042 -0.000 -0.046 +0.005 +0.001


Dumping 'NbTe2.fillings' ... done
Dumping 'NbTe2.wfns' ... done
Dumping 'NbTe2.fluidState' ... done
Dumping 'NbTe2.eigenvals' ... done
End date and time: Thu Jul 30 18:10:10 2020  (Duration: 0-0:27:56.07)
Done!
