
*************** JDFTx 1.5.0  ***************

Start date and time: Sun Jan 17 00:34:57 2021
Executable jdftx_gpu with command-line: -i Charged.in -o Charged.out
Running on hosts (process indices):  amax (0-4)
Divided in process groups (process indices):  0 (0)  1 (1)  2 (2)  3 (3)  4 (4)
gpuInit: Found compatible cuda device 0 'Tesla K80'
gpuInit: Found compatible cuda device 1 'Tesla K80'
gpuInit: Found compatible cuda device 2 'Tesla K80'
gpuInit: Found compatible cuda device 3 'Tesla K80'
gpuInit: Found compatible cuda device 4 'Tesla K80'
gpuInit: Selected device 0
Resource initialization completed at t[s]:      2.65
Run totals: 5 processes, 24 threads, 5 GPUs


Input parsed successfully to the following command list (including defaults):

basis kpoint-dependent
cache-projectors no
coords-type Lattice
core-overlap-check none
coulomb-interaction Slab 001
coulomb-truncation-embed 0.5 0.5 0.5
davidson-band-ratio 1.1
dump End State
dump-name NbTe2.$VAR
elec-cutoff 20
elec-eigen-algo Davidson
elec-ex-corr gga-PBE
elec-initial-charge 1.000000
elec-initial-magnetization 30.000000 no
elec-smearing Gauss 0.0073499
electronic-minimize  \
	dirUpdateScheme      FletcherReeves \
	linminMethod         DirUpdateRecommended \
	nIterations          200 \
	history              15 \
	knormThreshold       0 \
	energyDiffThreshold  1e-08 \
	nEnergyDiff          2 \
	alphaTstart          1 \
	alphaTmin            1e-10 \
	updateTestStepSize   yes \
	alphaTreduceFactor   0.1 \
	alphaTincreaseFactor 3 \
	nAlphaAdjustMax      3 \
	wolfeEnergy          0.0001 \
	wolfeGradient        0.9 \
	fdTest               no
exchange-regularization WignerSeitzTruncated
fluid LinearPCM 298.000000 1.013250
fluid-anion F- 1 MeanFieldLJ \
	epsBulk 1 \
	pMol 0 \
	epsInf 1 \
	Pvap 0 \
	sigmaBulk 0 \
	Rvdw 2.24877 \
	Res 0 \
	tauNuc 343133
fluid-cation Na+ 1 MeanFieldLJ \
	epsBulk 1 \
	pMol 0 \
	epsInf 1 \
	Pvap 0 \
	sigmaBulk 0 \
	Rvdw 2.19208 \
	Res 0 \
	tauNuc 343133
fluid-ex-corr lda-TF lda-PZ
fluid-gummel-loop 10 1.000000e-05
fluid-minimize  \
	dirUpdateScheme      PolakRibiere \
	linminMethod         DirUpdateRecommended \
	nIterations          400 \
	history              15 \
	knormThreshold       1e-11 \
	energyDiffThreshold  0 \
	nEnergyDiff          2 \
	alphaTstart          1 \
	alphaTmin            1e-10 \
	updateTestStepSize   yes \
	alphaTreduceFactor   0.1 \
	alphaTincreaseFactor 3 \
	nAlphaAdjustMax      6 \
	wolfeEnergy          0.0001 \
	wolfeGradient        0.9 \
	fdTest               no
fluid-solvent H2O 55.338 ScalarEOS \
	epsBulk 78.4 \
	pMol 0.92466 \
	epsInf 1.77 \
	Pvap 1.06736e-10 \
	sigmaBulk 4.62e-05 \
	Rvdw 2.61727 \
	Res 1.42 \
	tauNuc 343133 \
	poleEl 15 7 1
forces-output-coords Positions
initial-state NbTe2.$VAR
ion Ti   0.166666628871778   0.083333387753221   0.566175256878475 1
ion Ti   0.083333386878221   0.166666629746778   0.433824743121525 1
ion Ti   0.416666628871778   0.083333387753221   0.566175256878475 1
ion Ti   0.333333386878221   0.166666629746778   0.433824743121525 1
ion Ti   0.666666628871778   0.083333387753221   0.566175256878475 1
ion Ti   0.583333386878221   0.166666629746778   0.433824743121525 1
ion Ti   0.916666628871778   0.083333387753221   0.566175256878475 1
ion Ti   0.833333386878221   0.166666629746778   0.433824743121525 1
ion Ti   0.166666628871778   0.333333387753221   0.566175256878475 1
ion Ti   0.083333386878221   0.416666629746779   0.433824743121525 1
ion Ti   0.416666628871778   0.333333387753221   0.566175256878475 1
ion Ti   0.333333386878221   0.416666629746779   0.433824743121525 1
ion Ti   0.666666628871778   0.333333387753221   0.566175256878475 1
ion Ti   0.583333386878221   0.416666629746779   0.433824743121525 1
ion Ti   0.916666628871778   0.333333387753221   0.566175256878475 1
ion Ti   0.833333386878221   0.416666629746779   0.433824743121525 1
ion Ti   0.166666628871778   0.583333387753221   0.566175256878475 1
ion Ti   0.083333386878221   0.666666629746778   0.433824743121525 1
ion Ti   0.416666628871778   0.583333387753221   0.566175256878475 1
ion Ti   0.333333386878221   0.666666629746778   0.433824743121525 1
ion Ti   0.666666628871778   0.583333387753221   0.566175256878475 1
ion Ti   0.583333386878221   0.666666629746778   0.433824743121525 1
ion Ti   0.916666628871778   0.583333387753221   0.566175256878475 1
ion Ti   0.833333386878221   0.666666629746778   0.433824743121525 1
ion Ti   0.166666628871778   0.833333387753221   0.566175256878475 1
ion Ti   0.083333386878221   0.916666629746778   0.433824743121525 1
ion Ti   0.416666628871778   0.833333387753221   0.566175256878475 1
ion Ti   0.333333386878221   0.916666629746778   0.433824743121525 1
ion Ti   0.666666628871778   0.833333387753221   0.566175256878475 1
ion Ti   0.583333386878221   0.916666629746778   0.433824743121525 1
ion Ti   0.916666628871778   0.833333387753221   0.566175256878475 1
ion Ti   0.833333386878221   0.916666629746778   0.433824743121525 1
ion C   0.000000007874999   0.000000008750000   0.500000000000000 1
ion C   0.250000007874999   0.000000008750000   0.500000000000000 1
ion C   0.500000007875000   0.000000008750000   0.500000000000000 1
ion C   0.750000007875000   0.000000008750000   0.500000000000000 1
ion C   0.000000007874999   0.250000008750000   0.500000000000000 1
ion C   0.250000007874999   0.250000008750000   0.500000000000000 1
ion C   0.500000007875000   0.250000008750000   0.500000000000000 1
ion C   0.750000007875000   0.250000008750000   0.500000000000000 1
ion C   0.000000007874999   0.500000008750000   0.500000000000000 1
ion C   0.250000007874999   0.500000008750000   0.500000000000000 1
ion C   0.500000007875000   0.500000008750000   0.500000000000000 1
ion C   0.750000007875000   0.500000008750000   0.500000000000000 1
ion C   1.000000007875000   0.750000008750000   0.500000000000000 1
ion C   0.250000007874999   0.750000008750000   0.500000000000000 1
ion C   0.500000007875000   0.750000008750000   0.500000000000000 1
ion C   0.750000007875000   0.750000008750000   0.500000000000000 1
ion-species GBRV/$ID_pbe.uspp
ion-width Ecut
ionic-minimize  \
	dirUpdateScheme      L-BFGS \
	linminMethod         DirUpdateRecommended \
	nIterations          500 \
	history              15 \
	knormThreshold       0.0001 \
	energyDiffThreshold  1e-06 \
	nEnergyDiff          2 \
	alphaTstart          1 \
	alphaTmin            1e-10 \
	updateTestStepSize   yes \
	alphaTreduceFactor   0.1 \
	alphaTincreaseFactor 3 \
	nAlphaAdjustMax      3 \
	wolfeEnergy          0.0001 \
	wolfeGradient        0.9 \
	fdTest               no
kpoint   0.000000000000   0.000000000000   0.000000000000  1.00000000000000
kpoint-folding 5 5 1 
latt-move-scale 1 1 1
latt-scale 1.88973 1.88973 1.88973 
lattice Triclinic 12.1569 12.1569 17.2781 90 90 120
lattice-minimize  \
	dirUpdateScheme      L-BFGS \
	linminMethod         DirUpdateRecommended \
	nIterations          0 \
	history              15 \
	knormThreshold       0 \
	energyDiffThreshold  1e-06 \
	nEnergyDiff          2 \
	alphaTstart          1 \
	alphaTmin            1e-10 \
	updateTestStepSize   yes \
	alphaTreduceFactor   0.1 \
	alphaTincreaseFactor 3 \
	nAlphaAdjustMax      3 \
	wolfeEnergy          0.0001 \
	wolfeGradient        0.9 \
	fdTest               no
lcao-params -1 1e-06 0.0073499
pcm-variant CANDLE
spintype z-spin
subspace-rotation-factor 1 yes
symmetries automatic
symmetry-threshold 0.0001



---------- Setting up symmetries ----------

Found 24 point-group symmetries of the bravais lattice
Found 192 space-group symmetries with basis
Applied RMS atom displacement 1.48377e-06 bohrs to make symmetries exact.

---------- Initializing the Grid ----------
R = 
[    22.9732   -11.4866          0  ]
[          0    19.8954          0  ]
[          0          0    32.6508  ]
unit cell volume = 14923.4
G =
[   0.273501   0.157906         -0  ]
[          0   0.315811          0  ]
[          0         -0   0.192436  ]
Minimum fftbox size, Smin = [  96  96  132  ]
Chosen fftbox size, S = [  96  96  140  ]

---------- Exchange Correlation functional ----------
Initalized PBE GGA exchange.
Initalized PBE GGA correlation.

---------- Setting up pseudopotentials ----------
Width of ionic core gaussian charges (only for fluid interactions / plotting) set to 0.397384

Reading pseudopotential file '/home/guoxy/vasp/jdftx-1.5.0/build/pseudopotentials/GBRV/ti_pbe.uspp':
  Title: Ti.  Created by USPP 7.3.6 on 31-3-15
  Reference state energy: -59.020943.  12 valence electrons in orbitals:
    |300>  occupation: 2  eigenvalue: -2.777623
    |310>  occupation: 6  eigenvalue: -1.894596
    |400>  occupation: 2  eigenvalue: -0.438610
    |320>  occupation: 1  eigenvalue: -0.583119
  lMax: 2  lLocal: 3  QijEcut: 6
  6 projectors sampled on a log grid with 597 points:
    l: 0  eig: -2.777624  rCut: 1.8
    l: 0  eig: -0.438611  rCut: 1.8
    l: 1  eig: -1.894596  rCut: 1.8
    l: 1  eig: 0.500000  rCut: 1.8
    l: 2  eig: -0.583118  rCut: 1.8
    l: 2  eig: 0.150000  rCut: 1.8
  Partial core density with radius 0.8
  Transforming core density to a uniform radial grid of dG=0.02 with 1481 points.
  Transforming local potential to a uniform radial grid of dG=0.02 with 1481 points.
  Transforming nonlocal projectors to a uniform radial grid of dG=0.02 with 432 points.
  Transforming density augmentations to a uniform radial grid of dG=0.02 with 1481 points.
  Transforming atomic orbitals to a uniform radial grid of dG=0.02 with 432 points.
  Core radius for overlap checks: 1.80 bohrs.

Reading pseudopotential file '/home/guoxy/vasp/jdftx-1.5.0/build/pseudopotentials/GBRV/c_pbe.uspp':
  Title: C.  Created by USPP 7.3.6 on 3-2-2014
  Reference state energy: -5.406344.  4 valence electrons in orbitals:
    |200>  occupation: 2  eigenvalue: -0.504890
    |210>  occupation: 2  eigenvalue: -0.194356
  lMax: 1  lLocal: 2  QijEcut: 5
  4 projectors sampled on a log grid with 503 points:
    l: 0  eig: -0.504890  rCut: 1.3
    l: 0  eig: 0.000000  rCut: 1.3
    l: 1  eig: -0.194357  rCut: 1.3
    l: 1  eig: 0.000000  rCut: 1.3
  Partial core density with radius 1.1
  Transforming core density to a uniform radial grid of dG=0.02 with 1481 points.
  Transforming local potential to a uniform radial grid of dG=0.02 with 1481 points.
  Transforming nonlocal projectors to a uniform radial grid of dG=0.02 with 432 points.
  Transforming density augmentations to a uniform radial grid of dG=0.02 with 1481 points.
  Transforming atomic orbitals to a uniform radial grid of dG=0.02 with 432 points.
  Core radius for overlap checks: 1.30 bohrs.

Initialized 2 species with 48 total atoms.

Folded 1 k-points by 5x5x1 to 25 k-points.

---------- Setting up k-points, bands, fillings ----------
Adding inversion symmetry to k-mesh for non-inversion-symmetric unit cell.
Reduced to 5 k-points under symmetry. 
Computing the number of bands and number of electrons
Calculating initial fillings.
nElectrons: 449.000000   nBands: 384   nStates: 10

----- Setting up reduced wavefunction bases (one per k-point) -----
average nbasis = 63729.080 , ideal nbasis = 63753.870

---------- Setting up coulomb interaction ----------
Fluid mode embedding: using embedded box, but periodic Coulomb kernel.
(Fluid response is responsible for (approximate) separation between periodic images.)
Setting up double-sized grid for truncated Coulomb potentials:
R = 
[    22.9732   -11.4866          0  ]
[          0    19.8954          0  ]
[          0          0    65.3016  ]
unit cell volume = 29846.8
G =
[   0.273501   0.157906         -0  ]
[          0   0.315811          0  ]
[          0         -0   0.096218  ]
Chosen fftbox size, S = [  96  96  280  ]
Integer grid location selected as the embedding center:
   Grid: [  48  48  70  ]
   Lattice: [  0.5  0.5  0.5  ]
   Cartesian: [  5.7433  9.94769  16.3254  ]
Constructing Wigner-Seitz cell: 8 faces (6 quadrilaterals, 2 hexagons)
Range-separation parameter for embedded mesh potentials due to point charges: 0.617142 bohrs.

Initializing van der Waals corrections
	NOTE: vdW corrections apply only for interactions with fluid.
	Ti:  C6:  187.33 Eh-a0^6  R0: 2.952 a0
	 C:  C6:   30.35 Eh-a0^6  R0: 2.744 a0

---------- Setting up ewald sum ----------
Optimum gaussian width for ewald sums = 6.491360 bohr.
Real space sum over 605 unit cells with max indices [  5  5  2  ]
Reciprocal space sum over 7875 terms with max indices [  7  7  17  ]

---------- Allocating electronic variables ----------
Initializing wave functions:  linear combination of atomic orbitals
Ti pseudo-atom occupations:   s ( 2 0 )  p ( 6 )  d ( 4 )
C pseudo-atom occupations:   s ( 2 )  p ( 2 )
	FillingsUpdate:  mu: +0.464402629  nElectrons: 449.000000  magneticMoment: [ Abs: 47.85072  Tot: +47.84694 ]
LCAOMinimize: Iter:   0  F: -1838.7785279301808714  |grad|_K:  1.403e-02  alpha:  1.000e+00
	FillingsUpdate:  mu: +0.157492524  nElectrons: 449.000000  magneticMoment: [ Abs: 8.28739  Tot: +8.27749 ]
LCAOMinimize: Iter:   1  F: -1915.7196997069552253  |grad|_K:  6.414e-03  alpha:  6.112e-01  linmin:  1.595e-01  cgtest: -1.367e+00  t[s]:    183.08
LCAOMinimize: 	Bad step direction: g.d > 0.
LCAOMinimize: 	Undoing step.
LCAOMinimize: 	Step failed: resetting search direction.
	FillingsUpdate:  mu: +0.157492524  nElectrons: 449.000000  magneticMoment: [ Abs: 8.28739  Tot: +8.27749 ]
LCAOMinimize: Iter:   2  F: -1915.7196997069552253  |grad|_K:  6.414e-03  alpha:  0.000e+00
	FillingsUpdate:  mu: +0.275051741  nElectrons: 449.000000  magneticMoment: [ Abs: 10.57272  Tot: +10.14237 ]
LCAOMinimize: Iter:   3  F: -1943.4646586352851045  |grad|_K:  5.373e-03  alpha:  2.957e-01  linmin: -3.462e-01  cgtest:  4.424e-01  t[s]:    281.40
	FillingsUpdate:  mu: +0.316557565  nElectrons: 449.000000  magneticMoment: [ Abs: 11.81870  Tot: +10.79981 ]
LCAOMinimize: Iter:   4  F: -1950.6408766980846394  |grad|_K:  1.222e-03  alpha:  1.238e-01  linmin: -4.510e-01  cgtest:  7.560e-01  t[s]:    339.03
LCAOMinimize: Encountered beta<0, resetting CG.
	FillingsUpdate:  mu: +0.319252330  nElectrons: 449.000000  magneticMoment: [ Abs: 11.11886  Tot: +10.08624 ]
LCAOMinimize: Iter:   5  F: -1950.9233980205849548  |grad|_K:  2.609e-04  alpha:  2.697e-01  linmin:  1.209e-01  cgtest: -5.014e-01  t[s]:    397.58
LCAOMinimize: 	Predicted alpha/alphaT>3.000000, increasing alphaT to 8.090756e-01.
	FillingsUpdate:  mu: +0.314404493  nElectrons: 449.000000  magneticMoment: [ Abs: 6.79459  Tot: +5.85244 ]
LCAOMinimize: Iter:   6  F: -1950.9492748537365969  |grad|_K:  2.867e-04  alpha:  7.841e-01  linmin:  9.637e-03  cgtest:  6.764e-01  t[s]:    473.37
	FillingsUpdate:  mu: +0.313051923  nElectrons: 449.000000  magneticMoment: [ Abs: 5.28815  Tot: +4.43750 ]
LCAOMinimize: Iter:   7  F: -1950.9642783793874514  |grad|_K:  6.945e-05  alpha:  2.505e-01  linmin:  3.780e-04  cgtest:  5.320e-03  t[s]:    531.13
LCAOMinimize: 	Predicted alpha/alphaT>3.000000, increasing alphaT to 7.515540e-01.
	FillingsUpdate:  mu: +0.315443079  nElectrons: 449.000000  magneticMoment: [ Abs: 1.98500  Tot: +1.56073 ]
LCAOMinimize: Iter:   8  F: -1950.9688692959277887  |grad|_K:  3.476e-05  alpha:  1.269e+00  linmin: -1.613e-02  cgtest: -6.594e-03  t[s]:    606.09
	FillingsUpdate:  mu: +0.314236425  nElectrons: 449.000000  magneticMoment: [ Abs: 0.39674  Tot: +0.26672 ]
LCAOMinimize: Iter:   9  F: -1950.9698435167979369  |grad|_K:  1.705e-05  alpha:  1.056e+00  linmin:  2.194e-03  cgtest: -7.071e-02  t[s]:    664.61
	FillingsUpdate:  mu: +0.314236173  nElectrons: 449.000000  magneticMoment: [ Abs: 0.23140  Tot: +0.14120 ]
LCAOMinimize: Iter:  10  F: -1950.9699042194233698  |grad|_K:  6.558e-06  alpha:  2.829e-01  linmin:  9.435e-04  cgtest:  5.321e-03  t[s]:    722.68
	FillingsUpdate:  mu: +0.314580209  nElectrons: 449.000000  magneticMoment: [ Abs: 0.07345  Tot: +0.04113 ]
LCAOMinimize: Iter:  11  F: -1950.9699311608565040  |grad|_K:  1.902e-06  alpha:  8.476e-01  linmin:  2.527e-03  cgtest: -9.038e-03  t[s]:    781.29
	FillingsUpdate:  mu: +0.314431075  nElectrons: 449.000000  magneticMoment: [ Abs: 0.04845  Tot: +0.02571 ]
LCAOMinimize: Iter:  12  F: -1950.9699325859085093  |grad|_K:  1.076e-06  alpha:  5.335e-01  linmin: -1.475e-05  cgtest:  6.659e-03  t[s]:    839.55
	FillingsUpdate:  mu: +0.314389249  nElectrons: 449.000000  magneticMoment: [ Abs: 0.03598  Tot: +0.01705 ]
LCAOMinimize: Iter:  13  F: -1950.9699329123161533  |grad|_K:  6.168e-07  alpha:  3.803e-01  linmin: -2.030e-06  cgtest: -1.462e-03  t[s]:    897.41
	FillingsUpdate:  mu: +0.314419349  nElectrons: 449.000000  magneticMoment: [ Abs: 0.02041  Tot: +0.00121 ]
LCAOMinimize: Iter:  14  F: -1950.9699331593656098  |grad|_K:  2.208e-07  alpha:  8.770e-01  linmin:  8.916e-04  cgtest: -4.515e-03  t[s]:    955.53
LCAOMinimize: Converged (|Delta F|<1.000000e-06 for 2 iters).
----- createFluidSolver() ----- (Fluid-side solver setup)
   Initializing fluid molecule 'H2O'
     Initializing site 'O'
       Electron density: proportional to exp(-r/0.36935)*erfc((r-0.51523)/0.36823) with norm 6.826
       Charge density: gaussian nuclear width 0.478731 with net site charge 0.826
       Polarizability: cuspless exponential with width 0.32 and norm 3.73
       Hard sphere radius: 2.57003 bohrs
       Positions in reference frame:
         [ +0.000000 +0.000000 +0.000000 ]
     Initializing site 'H'
       Electron density: proportional to exp(-r/0.34641)*erfc((r-0)/0.390882) with norm 0.587
       Charge density: gaussian nuclear width 0.377945 with net site charge -0.413
       Polarizability: cuspless exponential with width 0.39 and norm 3.3
       Positions in reference frame:
         [ +0.000000 -1.441945 +1.122523 ]
         [ +0.000000 +1.441945 +1.122523 ]
     Net charge: 0   dipole magnitude: 0.927204
     Initializing spherical shell mfKernel with radius 2.61727 Bohr
     deltaS corrections:
       site 'O': -7.54299
       site 'H': -6.83917
   Initializing fluid molecule 'Na+'
     Initializing site 'Na'
       Electron density: proportional to exp(-r/0.19682)*erfc((r-0.71491)/0.41314) with norm 8.1383
       Charge density: gaussian nuclear width 0.365347 with net site charge -1
       Hard sphere radius: 1.86327 bohrs
       Positions in reference frame:
         [ +0.000000 +0.000000 +0.000000 ]
     Net charge: -1   dipole magnitude: 0
     Initializing gaussian mfKernel with width: 1.55004 Bohr
     deltaS corrections:
       site 'Na': -22.3555
   Initializing fluid molecule 'F-'
     Initializing site 'F'
       Electron density: proportional to exp(-r/0.38886)*erfc((r-0)/0.438782) with norm 8
       Charge density: gaussian nuclear width 0.374796 with net site charge 1
       Hard sphere radius: 2.39995 bohrs
       Positions in reference frame:
         [ +0.000000 +0.000000 +0.000000 ]
     Net charge: 1   dipole magnitude: 0
     Initializing gaussian mfKernel with width: 1.59012 Bohr
     deltaS corrections:
       site 'F': -9.04335

Correction to mu due to finite nuclear width = -0.0148929
   Cavity determined by nc: 0.00142 and sigma: 0.707107
   Nonlocal vdW cavity from gaussian model electron density with norm = 8 and sigma = 0.993594 bohr
   Charge asymmetry in cavity with sensitivity pCavity = 36.5 e-bohr/Eh
   Electrostatic cavity expanded by eta = 1.46 bohrs
   Weighted density cavitation model constrained by Nbulk: 0.0049383 bohr^-3, Pvap: 3.14029 kPa, Rvdw: 2.61727 bohr and sigmaBulk: 4.62e-05 Eh/bohr^2 at T: 298 K.
   Weighted density dispersion model using vdW pair potentials with single solvent site with sqrtC6eff: 0.77 SI.


---- Citations for features of the code used in this run ----

   Software package:
      R. Sundararaman, K. Letchworth-Weaver, K.A. Schwarz, D. Gunceler, Y. Ozhabes and T.A. Arias, 'JDFTx: software for joint density-functional theory', SoftwareX 6, 278 (2017)

   gga-PBE exchange-correlation functional:
      J.P. Perdew, K. Burke and M. Ernzerhof, Phys. Rev. Lett. 77, 3865 (1996)

   Pseudopotentials:
      KF Garrity, JW Bennett, KM Rabe and D Vanderbilt, Comput. Mater. Sci. 81, 446 (2014)

   Truncated Coulomb potentials:
      R. Sundararaman and T.A. Arias, Phys. Rev. B 87, 165122 (2013)

   Van der Waals correction pair-potentials:
      S. Grimme, J. Comput. Chem. 27, 1787 (2006)

   Charge-asymmetric nonlocally-determined local-electric (CANDLE) solvation model:
      R. Sundararaman and W.A. Goddard III, J. Chem. Phys. 142, 064107 (2015)

   Total energy minimization with Auxiliary Hamiltonian:
      C. Freysoldt, S. Boeck, and J. Neugebauer, Phys. Rev. B 79, 241103(R) (2009)

This list may not be complete. Please suggest additional citations or
report any other bugs at https://github.com/shankar1729/jdftx/issues

Initialization completed successfully at t[s]:    963.33

Fluid solver invoked on fresh (partially random / LCAO) wavefunctions
Running a vacuum solve first:

-------- Initial electronic minimization -----------
	FillingsUpdate:  mu: +0.314419349  nElectrons: 449.000000  magneticMoment: [ Abs: 0.02041  Tot: +0.00121 ]
ElecMinimize: Iter:   0  F: -1950.969933159352877  |grad|_K:  1.976e-04  alpha:  1.000e+00
	FillingsUpdate:  mu: +0.136500653  nElectrons: 449.000000  magneticMoment: [ Abs: 0.02078  Tot: -0.00049 ]
	SubspaceRotationAdjust: set factor to 1
ElecMinimize: Iter:   1  F: -1954.397616674748633  |grad|_K:  1.166e-04  alpha:  3.640e-01  linmin:  6.786e-05  t[s]:   1090.42
	FillingsUpdate:  mu: +0.136236672  nElectrons: 449.000000  magneticMoment: [ Abs: 0.01330  Tot: +0.00367 ]
	SubspaceRotationAdjust: set factor to 0.78
ElecMinimize: Iter:   2  F: -1956.240337670468080  |grad|_K:  7.895e-05  alpha:  5.579e-01  linmin: -1.130e-04  t[s]:   1168.24
	FillingsUpdate:  mu: +0.100026718  nElectrons: 449.000000  magneticMoment: [ Abs: 0.00925  Tot: -0.00109 ]
	SubspaceRotationAdjust: set factor to 0.603
ElecMinimize: Iter:   3  F: -1957.051775264060780  |grad|_K:  5.266e-05  alpha:  5.198e-01  linmin:  6.228e-05  t[s]:   1246.05
	FillingsUpdate:  mu: +0.014984431  nElectrons: 449.000000  magneticMoment: [ Abs: 0.00730  Tot: -0.00401 ]
	SubspaceRotationAdjust: set factor to 0.51
ElecMinimize: Iter:   4  F: -1957.421216315524362  |grad|_K:  2.976e-05  alpha:  5.494e-01  linmin:  6.109e-04  t[s]:   1324.38
	FillingsUpdate:  mu: +0.028060550  nElectrons: 449.000000  magneticMoment: [ Abs: 0.00828  Tot: -0.00750 ]
	SubspaceRotationAdjust: set factor to 0.561
ElecMinimize: Iter:   5  F: -1957.550499178161317  |grad|_K:  1.975e-05  alpha:  6.430e-01  linmin:  6.698e-05  t[s]:   1401.79
	FillingsUpdate:  mu: +0.032980301  nElectrons: 449.000000  magneticMoment: [ Abs: 0.00994  Tot: -0.00979 ]
	SubspaceRotationAdjust: set factor to 0.573
ElecMinimize: Iter:   6  F: -1957.599064068657299  |grad|_K:  1.435e-05  alpha:  5.243e-01  linmin:  7.017e-06  t[s]:   1479.73
	FillingsUpdate:  mu: +0.021103907  nElectrons: 449.000000  magneticMoment: [ Abs: 0.01137  Tot: -0.01119 ]
	SubspaceRotationAdjust: set factor to 0.728
ElecMinimize: Iter:   7  F: -1957.628248240551557  |grad|_K:  9.485e-06  alpha:  5.808e-01  linmin:  1.442e-05  t[s]:   1557.12
	FillingsUpdate:  mu: +0.011806646  nElectrons: 449.000000  magneticMoment: [ Abs: 0.01221  Tot: -0.01184 ]
	SubspaceRotationAdjust: set factor to 0.813
ElecMinimize: Iter:   8  F: -1957.642011019783240  |grad|_K:  7.821e-06  alpha:  6.289e-01  linmin:  6.368e-06  t[s]:   1634.63
	FillingsUpdate:  mu: +0.013216426  nElectrons: 449.000000  magneticMoment: [ Abs: 0.01272  Tot: -0.01219 ]
	SubspaceRotationAdjust: set factor to 0.903
ElecMinimize: Iter:   9  F: -1957.648896858536546  |grad|_K:  4.813e-06  alpha:  4.607e-01  linmin: -2.300e-06  t[s]:   1712.41
	FillingsUpdate:  mu: +0.013299735  nElectrons: 449.000000  magneticMoment: [ Abs: 0.01305  Tot: -0.01242 ]
	SubspaceRotationAdjust: set factor to 1.02
ElecMinimize: Iter:  10  F: -1957.652137064989120  |grad|_K:  3.670e-06  alpha:  5.693e-01  linmin: -9.355e-06  t[s]:   1789.89
	FillingsUpdate:  mu: +0.009183553  nElectrons: 449.000000  magneticMoment: [ Abs: 0.01330  Tot: -0.01265 ]
	SubspaceRotationAdjust: set factor to 0.908
ElecMinimize: Iter:  11  F: -1957.653737197991177  |grad|_K:  2.878e-06  alpha:  4.833e-01  linmin: -1.178e-06  t[s]:   1867.63
	FillingsUpdate:  mu: +0.010540428  nElectrons: 449.000000  magneticMoment: [ Abs: 0.01364  Tot: -0.01299 ]
	SubspaceRotationAdjust: set factor to 0.927
ElecMinimize: Iter:  12  F: -1957.654713285349317  |grad|_K:  2.050e-06  alpha:  4.800e-01  linmin: -1.200e-06  t[s]:   1945.22
	FillingsUpdate:  mu: +0.010085144  nElectrons: 449.000000  magneticMoment: [ Abs: 0.01410  Tot: -0.01347 ]
	SubspaceRotationAdjust: set factor to 1.13
ElecMinimize: Iter:  13  F: -1957.655271444184109  |grad|_K:  1.463e-06  alpha:  5.410e-01  linmin:  5.412e-06  t[s]:   2022.94
	FillingsUpdate:  mu: +0.009332614  nElectrons: 449.000000  magneticMoment: [ Abs: 0.01472  Tot: -0.01410 ]
	SubspaceRotationAdjust: set factor to 1.13
ElecMinimize: Iter:  14  F: -1957.655582962876906  |grad|_K:  1.236e-06  alpha:  5.933e-01  linmin:  2.693e-06  t[s]:   2101.03
	FillingsUpdate:  mu: +0.010051827  nElectrons: 449.000000  magneticMoment: [ Abs: 0.01536  Tot: -0.01474 ]
	SubspaceRotationAdjust: set factor to 1.01
ElecMinimize: Iter:  15  F: -1957.655734866730882  |grad|_K:  8.813e-07  alpha:  4.053e-01  linmin: -2.552e-08  t[s]:   2179.11
	FillingsUpdate:  mu: +0.009241907  nElectrons: 449.000000  magneticMoment: [ Abs: 0.01620  Tot: -0.01556 ]
	SubspaceRotationAdjust: set factor to 0.997
ElecMinimize: Iter:  16  F: -1957.655830557420813  |grad|_K:  6.829e-07  alpha:  5.022e-01  linmin:  1.690e-06  t[s]:   2256.92
	FillingsUpdate:  mu: +0.009578080  nElectrons: 449.000000  magneticMoment: [ Abs: 0.01701  Tot: -0.01634 ]
	SubspaceRotationAdjust: set factor to 1.04
ElecMinimize: Iter:  17  F: -1957.655881708434208  |grad|_K:  5.088e-07  alpha:  4.474e-01  linmin: -1.319e-08  t[s]:   2334.87
	FillingsUpdate:  mu: +0.009417735  nElectrons: 449.000000  magneticMoment: [ Abs: 0.01806  Tot: -0.01734 ]
	SubspaceRotationAdjust: set factor to 1.12
ElecMinimize: Iter:  18  F: -1957.655918030267230  |grad|_K:  3.801e-07  alpha:  5.718e-01  linmin: -3.546e-09  t[s]:   2412.09
	FillingsUpdate:  mu: +0.009152987  nElectrons: 449.000000  magneticMoment: [ Abs: 0.01907  Tot: -0.01831 ]
	SubspaceRotationAdjust: set factor to 1.19
ElecMinimize: Iter:  19  F: -1957.655936002121734  |grad|_K:  2.994e-07  alpha:  5.069e-01  linmin:  1.340e-07  t[s]:   2489.97
	FillingsUpdate:  mu: +0.009437808  nElectrons: 449.000000  magneticMoment: [ Abs: 0.02021  Tot: -0.01940 ]
	SubspaceRotationAdjust: set factor to 1.08
ElecMinimize: Iter:  20  F: -1957.655946560204939  |grad|_K:  2.518e-07  alpha:  4.799e-01  linmin:  3.902e-07  t[s]:   2567.91
	FillingsUpdate:  mu: +0.009228593  nElectrons: 449.000000  magneticMoment: [ Abs: 0.02138  Tot: -0.02053 ]
	SubspaceRotationAdjust: set factor to 1.04
ElecMinimize: Iter:  21  F: -1957.655952630366528  |grad|_K:  1.764e-07  alpha:  3.902e-01  linmin:  2.354e-07  t[s]:   2645.76
	FillingsUpdate:  mu: +0.009280690  nElectrons: 449.000000  magneticMoment: [ Abs: 0.02298  Tot: -0.02207 ]
	SubspaceRotationAdjust: set factor to 1.15
ElecMinimize: Iter:  22  F: -1957.655957117059870  |grad|_K:  1.348e-07  alpha:  5.875e-01  linmin:  5.359e-07  t[s]:   2723.44
	FillingsUpdate:  mu: +0.009297154  nElectrons: 449.000000  magneticMoment: [ Abs: 0.02457  Tot: -0.02360 ]
	SubspaceRotationAdjust: set factor to 1.28
ElecMinimize: Iter:  23  F: -1957.655959555312847  |grad|_K:  1.116e-07  alpha:  5.469e-01  linmin:  7.460e-08  t[s]:   2800.95
	FillingsUpdate:  mu: +0.009198692  nElectrons: 449.000000  magneticMoment: [ Abs: 0.02629  Tot: -0.02525 ]
	SubspaceRotationAdjust: set factor to 1.24
ElecMinimize: Iter:  24  F: -1957.655961048472818  |grad|_K:  9.389e-08  alpha:  4.887e-01  linmin:  1.119e-07  t[s]:   2879.10
	FillingsUpdate:  mu: +0.009287896  nElectrons: 449.000000  magneticMoment: [ Abs: 0.02794  Tot: -0.02684 ]
	SubspaceRotationAdjust: set factor to 1.08
ElecMinimize: Iter:  25  F: -1957.655961877027494  |grad|_K:  7.083e-08  alpha:  3.830e-01  linmin:  4.491e-08  t[s]:   2957.61
	FillingsUpdate:  mu: +0.009227062  nElectrons: 449.000000  magneticMoment: [ Abs: 0.02988  Tot: -0.02870 ]
	SubspaceRotationAdjust: set factor to 0.99
ElecMinimize: Iter:  26  F: -1957.655962432713068  |grad|_K:  5.545e-08  alpha:  4.514e-01  linmin:  8.409e-08  t[s]:   3035.82
	FillingsUpdate:  mu: +0.009228304  nElectrons: 449.000000  magneticMoment: [ Abs: 0.03203  Tot: -0.03077 ]
	SubspaceRotationAdjust: set factor to 1.1
ElecMinimize: Iter:  27  F: -1957.655962806091111  |grad|_K:  4.020e-08  alpha:  4.949e-01  linmin: -7.286e-09  t[s]:   3113.77
	FillingsUpdate:  mu: +0.009249742  nElectrons: 449.000000  magneticMoment: [ Abs: 0.03450  Tot: -0.03314 ]
	SubspaceRotationAdjust: set factor to 1.19
ElecMinimize: Iter:  28  F: -1957.655963051290200  |grad|_K:  3.630e-08  alpha:  6.185e-01  linmin:  8.529e-08  t[s]:   3191.00
	FillingsUpdate:  mu: +0.009220202  nElectrons: 449.000000  magneticMoment: [ Abs: 0.03674  Tot: -0.03529 ]
	SubspaceRotationAdjust: set factor to 1.1
ElecMinimize: Iter:  29  F: -1957.655963187721227  |grad|_K:  2.920e-08  alpha:  4.218e-01  linmin: -4.885e-08  t[s]:   3268.76
	FillingsUpdate:  mu: +0.009248270  nElectrons: 449.000000  magneticMoment: [ Abs: 0.03955  Tot: -0.03799 ]
	SubspaceRotationAdjust: set factor to 1
ElecMinimize: Iter:  30  F: -1957.655963289166948  |grad|_K:  2.513e-08  alpha:  4.848e-01  linmin:  5.312e-08  t[s]:   3346.31
	FillingsUpdate:  mu: +0.009236635  nElectrons: 449.000000  magneticMoment: [ Abs: 0.04300  Tot: -0.04130 ]
	SubspaceRotationAdjust: set factor to 1.14
ElecMinimize: Iter:  31  F: -1957.655963369423944  |grad|_K:  1.892e-08  alpha:  5.180e-01  linmin:  1.457e-07  t[s]:   3424.18
	FillingsUpdate:  mu: +0.009226270  nElectrons: 449.000000  magneticMoment: [ Abs: 0.04695  Tot: -0.04510 ]
	SubspaceRotationAdjust: set factor to 1.29
ElecMinimize: Iter:  32  F: -1957.655963426164590  |grad|_K:  1.791e-08  alpha:  6.470e-01  linmin:  2.124e-07  t[s]:   3502.15
	FillingsUpdate:  mu: +0.009242614  nElectrons: 449.000000  magneticMoment: [ Abs: 0.05085  Tot: -0.04884 ]
	SubspaceRotationAdjust: set factor to 1.21
ElecMinimize: Iter:  33  F: -1957.655963462766294  |grad|_K:  1.588e-08  alpha:  4.653e-01  linmin: -4.929e-09  t[s]:   3580.40
	FillingsUpdate:  mu: +0.009228792  nElectrons: 449.000000  magneticMoment: [ Abs: 0.05528  Tot: -0.05311 ]
	SubspaceRotationAdjust: set factor to 1.16
ElecMinimize: Iter:  34  F: -1957.655963489857868  |grad|_K:  1.346e-08  alpha:  4.379e-01  linmin:  4.017e-08  t[s]:   3658.21
	FillingsUpdate:  mu: +0.009238067  nElectrons: 449.000000  magneticMoment: [ Abs: 0.06101  Tot: -0.05862 ]
	SubspaceRotationAdjust: set factor to 1.32
ElecMinimize: Iter:  35  F: -1957.655963513224378  |grad|_K:  1.157e-08  alpha:  5.264e-01  linmin:  3.028e-09  t[s]:   3735.74
	FillingsUpdate:  mu: +0.009236019  nElectrons: 449.000000  magneticMoment: [ Abs: 0.06885  Tot: -0.06617 ]
	SubspaceRotationAdjust: set factor to 1.53
ElecMinimize: Iter:  36  F: -1957.655963534921284  |grad|_K:  1.234e-08  alpha:  6.609e-01  linmin:  2.337e-07  t[s]:   3813.99
	FillingsUpdate:  mu: +0.009230155  nElectrons: 449.000000  magneticMoment: [ Abs: 0.08178  Tot: -0.07862 ]
	SubspaceRotationAdjust: set factor to 1.75
ElecMinimize: Iter:  37  F: -1957.655963561157932  |grad|_K:  1.428e-08  alpha:  7.045e-01  linmin:  2.090e-07  t[s]:   3891.69
	FillingsUpdate:  mu: +0.009249366  nElectrons: 449.000000  magneticMoment: [ Abs: 0.09931  Tot: -0.09552 ]
	SubspaceRotationAdjust: set factor to 1.51
ElecMinimize: Iter:  38  F: -1957.655963589131488  |grad|_K:  2.074e-08  alpha:  5.602e-01  linmin:  2.010e-07  t[s]:   3969.67
	FillingsUpdate:  mu: +0.009223947  nElectrons: 449.000000  magneticMoment: [ Abs: 0.13647  Tot: -0.13140 ]
	SubspaceRotationAdjust: set factor to 1.54
ElecMinimize: Iter:  39  F: -1957.655963641190510  |grad|_K:  2.701e-08  alpha:  4.948e-01  linmin:  8.268e-07  t[s]:   4047.58
ElecMinimize: 	Step increased F by 4.971849e-06, reducing alpha to 8.324422e-02.
	FillingsUpdate:  mu: +0.009223567  nElectrons: 449.000000  magneticMoment: [ Abs: 0.14795  Tot: -0.14250 ]
	SubspaceRotationAdjust: set factor to 1.94
ElecMinimize: Iter:  40  F: -1957.655963668979439  |grad|_K:  2.806e-08  alpha:  8.324e-02  linmin: -1.544e-05  t[s]:   4176.16
ElecMinimize: 	Predicted alpha/alphaT>3.000000, increasing alphaT to 2.497327e-01.
ElecMinimize: 	Predicted alpha/alphaT>3.000000, increasing alphaT to 7.491980e-01.
	FillingsUpdate:  mu: +0.009223732  nElectrons: 449.000000  magneticMoment: [ Abs: 0.14829  Tot: -0.14282 ]
	SubspaceRotationAdjust: set factor to 2.14
ElecMinimize: Iter:  41  F: -1957.655963670498977  |grad|_K:  2.937e-08  alpha:  2.110e-03  linmin: -3.273e-05  t[s]:   4299.23
ElecMinimize: 	Predicted alpha/alphaT>3.000000, increasing alphaT to 6.330348e-03.
ElecMinimize: 	Predicted alpha/alphaT>3.000000, increasing alphaT to 1.899104e-02.
ElecMinimize: 	Predicted alpha/alphaT>3.000000, increasing alphaT to 5.697313e-02.
	FillingsUpdate:  mu: +0.009288791  nElectrons: 449.000000  magneticMoment: [ Abs: 0.21493  Tot: -0.20735 ]
	SubspaceRotationAdjust: set factor to 1.47
ElecMinimize: Iter:  42  F: -1957.655963895026616  |grad|_K:  7.202e-08  alpha:  3.497e-01  linmin: -1.071e-06  t[s]:   4422.77
	FillingsUpdate:  mu: +0.009288791  nElectrons: 449.000000  magneticMoment: [ Abs: 0.21493  Tot: -0.20735 ]
	SubspaceRotationAdjust: set factor to 1.14
ElecMinimize: Iter:  43  F: -1957.655963895028663  |grad|_K:  6.338e-08  alpha:  2.195e-07  linmin: -1.098e-05  t[s]:   4500.66
ElecMinimize: 	Wrong curvature in test step, increasing alphaT to 6.586039e-07.
	FillingsUpdate:  mu: +0.009288791  nElectrons: 449.000000  magneticMoment: [ Abs: 0.21493  Tot: -0.20735 ]
	SubspaceRotationAdjust: set factor to 0.975
ElecMinimize: Iter:  44  F: -1957.655963895046170  |grad|_K:  5.858e-08  alpha: -6.208e-09  linmin: -2.098e-05  t[s]:   4573.81
ElecMinimize: Converged (|Delta F|<1.000000e-08 for 2 iters).
Setting wave functions to eigenvectors of Hamiltonian
Vacuum energy after initial minimize, F = -1957.655963895046170

	Linear fluid (dielectric constant: 78.4, screening length: 5.74355 Bohr) occupying 0.723350 of unit cell:	Completed after 13 iterations at t[s]:   4592.64

-------- Electronic minimization -----------
	Linear fluid (dielectric constant: 78.4, screening length: 5.74355 Bohr) occupying 0.723350 of unit cell:	Completed after 0 iterations at t[s]:   4613.54
	FillingsUpdate:  mu: -0.140653636  nElectrons: 449.000000  magneticMoment: [ Abs: 0.22548  Tot: -0.21792 ]
ElecMinimize: Iter:   0  F: -1957.756891691406508  |grad|_K:  2.150e-06  alpha:  1.000e+00
	Linear fluid (dielectric constant: 78.4, screening length: 5.74355 Bohr) occupying 0.724292 of unit cell:	Completed after 10 iterations at t[s]:   4674.84
	Linear fluid (dielectric constant: 78.4, screening length: 5.74355 Bohr) occupying 0.723742 of unit cell:	Completed after 10 iterations at t[s]:   4703.28
	FillingsUpdate:  mu: -0.144159514  nElectrons: 449.000000  magneticMoment: [ Abs: 0.22904  Tot: -0.22119 ]
	SubspaceRotationAdjust: set factor to 0.622
ElecMinimize: Iter:   1  F: -1957.757278949984084  |grad|_K:  1.581e-06  alpha:  3.454e-01  linmin:  1.715e-06  t[s]:   4738.40
	Linear fluid (dielectric constant: 78.4, screening length: 5.74355 Bohr) occupying 0.724700 of unit cell:	Completed after 8 iterations at t[s]:   4762.28
	Linear fluid (dielectric constant: 78.4, screening length: 5.74355 Bohr) occupying 0.725243 of unit cell:	Completed after 8 iterations at t[s]:   4790.35
	FillingsUpdate:  mu: -0.142444921  nElectrons: 449.000000  magneticMoment: [ Abs: 0.23873  Tot: -0.23025 ]
	SubspaceRotationAdjust: set factor to 1.1
ElecMinimize: Iter:   2  F: -1957.757646080675840  |grad|_K:  5.428e-07  alpha:  5.670e-01  linmin: -1.631e-05  t[s]:   4824.71
	Linear fluid (dielectric constant: 78.4, screening length: 5.74355 Bohr) occupying 0.725554 of unit cell:	Completed after 6 iterations at t[s]:   4849.39
	Linear fluid (dielectric constant: 78.4, screening length: 5.74355 Bohr) occupying 0.725536 of unit cell:	Completed after 2 iterations at t[s]:   4876.02
	FillingsUpdate:  mu: -0.142234353  nElectrons: 449.000000  magneticMoment: [ Abs: 0.24406  Tot: -0.23515 ]
	SubspaceRotationAdjust: set factor to 1.04
ElecMinimize: Iter:   3  F: -1957.757689985182424  |grad|_K:  5.115e-07  alpha:  5.335e-01  linmin:  3.302e-07  t[s]:   4909.84
	Linear fluid (dielectric constant: 78.4, screening length: 5.74355 Bohr) occupying 0.725843 of unit cell:	Completed after 3 iterations at t[s]:   4933.53
	Linear fluid (dielectric constant: 78.4, screening length: 5.74355 Bohr) occupying 0.725983 of unit cell:	Completed after 3 iterations at t[s]:   4960.16
	FillingsUpdate:  mu: -0.142042006  nElectrons: 449.000000  magneticMoment: [ Abs: 0.26212  Tot: -0.25211 ]
	SubspaceRotationAdjust: set factor to 0.835
ElecMinimize: Iter:   4  F: -1957.757739798347529  |grad|_K:  3.828e-07  alpha:  7.788e-01  linmin:  1.538e-06  t[s]:   4994.36
	Linear fluid (dielectric constant: 78.4, screening length: 5.74355 Bohr) occupying 0.726034 of unit cell:	Completed after 7 iterations at t[s]:   5018.45
	Linear fluid (dielectric constant: 78.4, screening length: 5.74355 Bohr) occupying 0.726014 of unit cell:	Completed after 6 iterations at t[s]:   5045.84
	FillingsUpdate:  mu: -0.142569152  nElectrons: 449.000000  magneticMoment: [ Abs: 0.27472  Tot: -0.26409 ]
	SubspaceRotationAdjust: set factor to 0.628
ElecMinimize: Iter:   5  F: -1957.757756373095390  |grad|_K:  1.980e-07  alpha:  4.577e-01  linmin:  6.398e-07  t[s]:   5080.46
	Linear fluid (dielectric constant: 78.4, screening length: 5.74355 Bohr) occupying 0.726031 of unit cell:	Completed after 2 iterations at t[s]:   5104.22
	Linear fluid (dielectric constant: 78.4, screening length: 5.74355 Bohr) occupying 0.726035 of unit cell:	Completed after 3 iterations at t[s]:   5130.11
	FillingsUpdate:  mu: -0.142278463  nElectrons: 449.000000  magneticMoment: [ Abs: 0.28628  Tot: -0.27513 ]
	SubspaceRotationAdjust: set factor to 0.513
ElecMinimize: Iter:   6  F: -1957.757761805450400  |grad|_K:  1.694e-07  alpha:  5.799e-01  linmin:  4.109e-06  t[s]:   5164.63
	Linear fluid (dielectric constant: 78.4, screening length: 5.74355 Bohr) occupying 0.726010 of unit cell:	Completed after 1 iterations at t[s]:   5188.30
	Linear fluid (dielectric constant: 78.4, screening length: 5.74355 Bohr) occupying 0.726010 of unit cell:	Completed after 0 iterations at t[s]:   5213.57
	FillingsUpdate:  mu: -0.142336216  nElectrons: 449.000000  magneticMoment: [ Abs: 0.30018  Tot: -0.28839 ]
	SubspaceRotationAdjust: set factor to 0.623
ElecMinimize: Iter:   7  F: -1957.757765625346565  |grad|_K:  9.560e-08  alpha:  5.677e-01  linmin: -2.164e-06  t[s]:   5246.87
	Linear fluid (dielectric constant: 78.4, screening length: 5.74355 Bohr) occupying 0.725994 of unit cell:	Completed after 2 iterations at t[s]:   5270.68
	Linear fluid (dielectric constant: 78.4, screening length: 5.74355 Bohr) occupying 0.725995 of unit cell:	Completed after 0 iterations at t[s]:   5296.41
	FillingsUpdate:  mu: -0.142346572  nElectrons: 449.000000  magneticMoment: [ Abs: 0.30935  Tot: -0.29710 ]
	SubspaceRotationAdjust: set factor to 0.621
ElecMinimize: Iter:   8  F: -1957.757766903435822  |grad|_K:  6.763e-08  alpha:  5.601e-01  linmin: -5.328e-06  t[s]:   5329.84
	Linear fluid (dielectric constant: 78.4, screening length: 5.74355 Bohr) occupying 0.725991 of unit cell:	Completed after 1 iterations at t[s]:   5353.63
	Linear fluid (dielectric constant: 78.4, screening length: 5.74355 Bohr) occupying 0.725990 of unit cell:	Completed after 0 iterations at t[s]:   5379.29
	FillingsUpdate:  mu: -0.142342063  nElectrons: 449.000000  magneticMoment: [ Abs: 0.32366  Tot: -0.31077 ]
	SubspaceRotationAdjust: set factor to 0.734
ElecMinimize: Iter:   9  F: -1957.757767783372174  |grad|_K:  4.789e-08  alpha:  7.587e-01  linmin: -1.591e-05  t[s]:   5412.43
	Linear fluid (dielectric constant: 78.4, screening length: 5.74355 Bohr) occupying 0.726001 of unit cell:	Completed after 2 iterations at t[s]:   5436.23
	Linear fluid (dielectric constant: 78.4, screening length: 5.74355 Bohr) occupying 0.725999 of unit cell:	Completed after 0 iterations at t[s]:   5461.91
	FillingsUpdate:  mu: -0.142292203  nElectrons: 449.000000  magneticMoment: [ Abs: 0.33704  Tot: -0.32359 ]
	SubspaceRotationAdjust: set factor to 0.694
ElecMinimize: Iter:  10  F: -1957.757768157755436  |grad|_K:  5.087e-08  alpha:  6.493e-01  linmin: -8.737e-06  t[s]:   5495.05
	Linear fluid (dielectric constant: 78.4, screening length: 5.74355 Bohr) occupying 0.726010 of unit cell:	Completed after 2 iterations at t[s]:   5519.25
	Linear fluid (dielectric constant: 78.4, screening length: 5.74355 Bohr) occupying 0.726006 of unit cell:	Completed after 0 iterations at t[s]:   5544.70
	FillingsUpdate:  mu: -0.142305918  nElectrons: 449.000000  magneticMoment: [ Abs: 0.35208  Tot: -0.33803 ]
	SubspaceRotationAdjust: set factor to 0.647
ElecMinimize: Iter:  11  F: -1957.757768459992803  |grad|_K:  4.537e-08  alpha:  4.072e-01  linmin:  1.321e-05  t[s]:   5578.26
	Linear fluid (dielectric constant: 78.4, screening length: 5.74355 Bohr) occupying 0.726012 of unit cell:	Completed after 1 iterations at t[s]:   5601.82
	Linear fluid (dielectric constant: 78.4, screening length: 5.74355 Bohr) occupying 0.726012 of unit cell:	Completed after 0 iterations at t[s]:   5627.46
	FillingsUpdate:  mu: -0.142310421  nElectrons: 449.000000  magneticMoment: [ Abs: 0.36998  Tot: -0.35525 ]
	SubspaceRotationAdjust: set factor to 0.881
ElecMinimize: Iter:  12  F: -1957.757768631622184  |grad|_K:  3.547e-08  alpha:  4.180e-01  linmin: -1.929e-05  t[s]:   5660.73
	Linear fluid (dielectric constant: 78.4, screening length: 5.74355 Bohr) occupying 0.726018 of unit cell:	Completed after 1 iterations at t[s]:   5684.40
	Linear fluid (dielectric constant: 78.4, screening length: 5.74355 Bohr) occupying 0.726021 of unit cell:	Completed after 0 iterations at t[s]:   5709.91
	FillingsUpdate:  mu: -0.142316308  nElectrons: 449.000000  magneticMoment: [ Abs: 0.39482  Tot: -0.37914 ]
	SubspaceRotationAdjust: set factor to 1.02
ElecMinimize: Iter:  13  F: -1957.757768896144171  |grad|_K:  3.983e-08  alpha:  6.304e-01  linmin: -6.686e-05  t[s]:   5743.02
	Linear fluid (dielectric constant: 78.4, screening length: 5.74355 Bohr) occupying 0.726031 of unit cell:	Completed after 2 iterations at t[s]:   5766.61
	Linear fluid (dielectric constant: 78.4, screening length: 5.74355 Bohr) occupying 0.726035 of unit cell:	Completed after 0 iterations at t[s]:   5792.60
	FillingsUpdate:  mu: -0.142265428  nElectrons: 449.000000  magneticMoment: [ Abs: 0.45187  Tot: -0.43410 ]
	SubspaceRotationAdjust: set factor to 1.12
ElecMinimize: Iter:  14  F: -1957.757769375778025  |grad|_K:  7.045e-08  alpha:  8.300e-01  linmin: -5.114e-05  t[s]:   5826.04
	Linear fluid (dielectric constant: 78.4, screening length: 5.74355 Bohr) occupying 0.726054 of unit cell:	Completed after 2 iterations at t[s]:   5849.93
	Linear fluid (dielectric constant: 78.4, screening length: 5.74355 Bohr) occupying 0.726056 of unit cell:	Completed after 0 iterations at t[s]:   5875.83
	FillingsUpdate:  mu: -0.142178293  nElectrons: 449.000000  magneticMoment: [ Abs: 0.67286  Tot: -0.64716 ]
	SubspaceRotationAdjust: set factor to 1.19
ElecMinimize: Iter:  15  F: -1957.757770966551789  |grad|_K:  1.665e-07  alpha:  9.213e-01  linmin: -3.338e-06  t[s]:   5909.33
	Linear fluid (dielectric constant: 78.4, screening length: 5.74355 Bohr) occupying 0.725790 of unit cell:	Completed after 7 iterations at t[s]:   5933.79
	Linear fluid (dielectric constant: 78.4, screening length: 5.74355 Bohr) occupying 0.726056 of unit cell:	Completed after 10 iterations at t[s]:   5961.91
ElecMinimize: 	Step increased F by 4.581284e-08, reducing alpha to 6.063461e-06.
	Linear fluid (dielectric constant: 78.4, screening length: 5.74355 Bohr) occupying 0.726056 of unit cell:	Completed after 0 iterations at t[s]:   6016.21
ElecMinimize: 	Step increased F by 4.666208e-08, reducing alpha to 6.063461e-07.
	Linear fluid (dielectric constant: 78.4, screening length: 5.74355 Bohr) occupying 0.726056 of unit cell:	Completed after 0 iterations at t[s]:   6068.97
ElecMinimize: 	Step increased F by 4.669801e-08, reducing alpha to 6.063461e-08.
ElecMinimize: 	Step failed to reduce F after 3 attempts. Quitting step.
ElecMinimize: 	Undoing step.
	Linear fluid (dielectric constant: 78.4, screening length: 5.74355 Bohr) occupying 0.726056 of unit cell:	Completed after 0 iterations at t[s]:   6122.34
ElecMinimize: 	Step failed: resetting search direction.
	FillingsUpdate:  mu: -0.142124084  nElectrons: 449.000000  magneticMoment: [ Abs: 0.67286  Tot: -0.64716 ]
	SubspaceRotationAdjust: set factor to 1.5
ElecMinimize: Iter:  16  F: -1957.757770919702352  |grad|_K:  1.800e-07  alpha:  6.063e-08
	Linear fluid (dielectric constant: 78.4, screening length: 5.74355 Bohr) occupying 0.725944 of unit cell:	Completed after 7 iterations at t[s]:   6180.53
	Linear fluid (dielectric constant: 78.4, screening length: 5.74355 Bohr) occupying 0.726026 of unit cell:	Completed after 7 iterations at t[s]:   6208.17
	FillingsUpdate:  mu: -0.142361488  nElectrons: 449.000000  magneticMoment: [ Abs: 0.68302  Tot: -0.65694 ]
	SubspaceRotationAdjust: set factor to 1.14
ElecMinimize: Iter:  17  F: -1957.757772863780247  |grad|_K:  1.017e-07  alpha:  2.406e-01  linmin:  6.952e-06  t[s]:   6243.24
	Linear fluid (dielectric constant: 78.4, screening length: 5.74355 Bohr) occupying 0.726029 of unit cell:	Completed after 2 iterations at t[s]:   6267.66
	Linear fluid (dielectric constant: 78.4, screening length: 5.74355 Bohr) occupying 0.726032 of unit cell:	Completed after 2 iterations at t[s]:   6293.56
	FillingsUpdate:  mu: -0.142247535  nElectrons: 449.000000  magneticMoment: [ Abs: 0.72284  Tot: -0.69545 ]
	SubspaceRotationAdjust: set factor to 1.13
ElecMinimize: Iter:  18  F: -1957.757774351967555  |grad|_K:  9.045e-08  alpha:  5.895e-01  linmin: -1.242e-06  t[s]:   6327.78
	Linear fluid (dielectric constant: 78.4, screening length: 5.74355 Bohr) occupying 0.726012 of unit cell:	Completed after 3 iterations at t[s]:   6351.82
	Linear fluid (dielectric constant: 78.4, screening length: 5.74355 Bohr) occupying 0.725999 of unit cell:	Completed after 2 iterations at t[s]:   6378.41
	FillingsUpdate:  mu: -0.142360670  nElectrons: 449.000000  magneticMoment: [ Abs: 0.81668  Tot: -0.78592 ]
	SubspaceRotationAdjust: set factor to 1.1
ElecMinimize: Iter:  19  F: -1957.757776294000678  |grad|_K:  1.332e-07  alpha:  9.707e-01  linmin:  2.720e-06  t[s]:   6412.89
	Linear fluid (dielectric constant: 78.4, screening length: 5.74355 Bohr) occupying 0.725977 of unit cell:	Completed after 2 iterations at t[s]:   6437.06
	Linear fluid (dielectric constant: 78.4, screening length: 5.74355 Bohr) occupying 0.725971 of unit cell:	Completed after 1 iterations at t[s]:   6463.12
	FillingsUpdate:  mu: -0.142280816  nElectrons: 449.000000  magneticMoment: [ Abs: 1.13825  Tot: -1.09564 ]
	SubspaceRotationAdjust: set factor to 1.07
ElecMinimize: Iter:  20  F: -1957.757781631514945  |grad|_K:  2.042e-07  alpha:  1.249e+00  linmin: -2.719e-06  t[s]:   6497.44
	Linear fluid (dielectric constant: 78.4, screening length: 5.74355 Bohr) occupying 0.725919 of unit cell:	Completed after 2 iterations at t[s]:   6521.56
	Linear fluid (dielectric constant: 78.4, screening length: 5.74355 Bohr) occupying 0.725886 of unit cell:	Completed after 3 iterations at t[s]:   6547.88
	FillingsUpdate:  mu: -0.142368888  nElectrons: 449.000000  magneticMoment: [ Abs: 2.57556  Tot: -2.47963 ]
	SubspaceRotationAdjust: set factor to 1.07
ElecMinimize: Iter:  21  F: -1957.757803309197698  |grad|_K:  5.863e-07  alpha:  2.149e+00  linmin:  2.354e-05  t[s]:   6582.41
	Linear fluid (dielectric constant: 78.4, screening length: 5.74355 Bohr) occupying 0.723357 of unit cell:	Completed after 9 iterations at t[s]:   6607.25
	Linear fluid (dielectric constant: 78.4, screening length: 5.74355 Bohr) occupying 0.725885 of unit cell:	Completed after 11 iterations at t[s]:   6635.96
	FillingsUpdate:  mu: -0.142414783  nElectrons: 449.000000  magneticMoment: [ Abs: 2.59305  Tot: -2.49648 ]
	SubspaceRotationAdjust: set factor to 1.21
ElecMinimize: Iter:  22  F: -1957.757803756334852  |grad|_K:  5.904e-07  alpha:  3.101e-03  linmin: -2.110e-04  t[s]:   6670.85
	Linear fluid (dielectric constant: 78.4, screening length: 5.74355 Bohr) occupying 0.725885 of unit cell:	Completed after 0 iterations at t[s]:   6694.61
ElecMinimize: 	Wrong curvature in test step, increasing alphaT to 9.303763e-03.
	Linear fluid (dielectric constant: 78.4, screening length: 5.74355 Bohr) occupying 0.725885 of unit cell:	Completed after 0 iterations at t[s]:   6714.63
	FillingsUpdate:  mu: -0.142414646  nElectrons: 449.000000  magneticMoment: [ Abs: 2.61122  Tot: -2.51397 ]
	SubspaceRotationAdjust: set factor to 1.37
ElecMinimize: Iter:  23  F: -1957.757804784870132  |grad|_K:  5.941e-07  alpha: -9.099e-01  linmin: -3.383e-04  t[s]:   6748.92
	Linear fluid (dielectric constant: 78.4, screening length: 5.74355 Bohr) occupying 0.723705 of unit cell:	Completed after 10 iterations at t[s]:   6774.11
	Linear fluid (dielectric constant: 78.4, screening length: 5.74355 Bohr) occupying 0.725885 of unit cell:	Completed after 11 iterations at t[s]:   6802.44
	FillingsUpdate:  mu: -0.142407748  nElectrons: 449.000000  magneticMoment: [ Abs: 2.62726  Tot: -2.52941 ]
	SubspaceRotationAdjust: set factor to 1.57
ElecMinimize: Iter:  24  F: -1957.757806126223386  |grad|_K:  5.945e-07  alpha:  2.633e-03  linmin: -4.086e-04  t[s]:   6837.92
	Linear fluid (dielectric constant: 78.4, screening length: 5.74355 Bohr) occupying 0.725886 of unit cell:	Completed after 0 iterations at t[s]:   6861.97
ElecMinimize: 	Predicted alpha/alphaT>3.000000, increasing alphaT to 7.899615e-03.
	Linear fluid (dielectric constant: 78.4, screening length: 5.74355 Bohr) occupying 0.725888 of unit cell:	Completed after 0 iterations at t[s]:   6887.28
ElecMinimize: 	Predicted alpha/alphaT>3.000000, increasing alphaT to 2.369884e-02.
	Linear fluid (dielectric constant: 78.4, screening length: 5.74355 Bohr) occupying 0.725892 of unit cell:	Completed after 2 iterations at t[s]:   6912.49
ElecMinimize: 	Predicted alpha/alphaT>3.000000, increasing alphaT to 7.109653e-02.
	Linear fluid (dielectric constant: 78.4, screening length: 5.74355 Bohr) occupying 0.726015 of unit cell:	Completed after 8 iterations at t[s]:   6939.82
	FillingsUpdate:  mu: -0.141532259  nElectrons: 449.000000  magneticMoment: [ Abs: 5.03808  Tot: -4.85075 ]
	SubspaceRotationAdjust: set factor to 1.55
ElecMinimize: Iter:  25  F: -1957.757927099572044  |grad|_K:  1.582e-06  alpha:  3.859e-01  linmin:  2.034e-05  t[s]:   6974.48
	Linear fluid (dielectric constant: 78.4, screening length: 5.74355 Bohr) occupying 0.669638 of unit cell:	Completed after 9 iterations at t[s]:   6999.85
	Linear fluid (dielectric constant: 78.4, screening length: 5.74355 Bohr) occupying 0.726015 of unit cell:	Completed after 11 iterations at t[s]:   7028.01
	FillingsUpdate:  mu: -0.141532960  nElectrons: 449.000000  magneticMoment: [ Abs: 5.04187  Tot: -4.85440 ]
	SubspaceRotationAdjust: set factor to 1.95
ElecMinimize: Iter:  26  F: -1957.757927146776638  |grad|_K:  1.578e-06  alpha:  8.566e-05  linmin: -1.797e-05  t[s]:   7063.54
	Linear fluid (dielectric constant: 78.4, screening length: 5.74355 Bohr) occupying 0.726015 of unit cell:	Completed after 0 iterations at t[s]:   7087.19
ElecMinimize: 	Predicted alpha/alphaT>3.000000, increasing alphaT to 2.569804e-04.
	Linear fluid (dielectric constant: 78.4, screening length: 5.74355 Bohr) occupying 0.726016 of unit cell:	Completed after 0 iterations at t[s]:   7111.86
ElecMinimize: 	Predicted alpha/alphaT>3.000000, increasing alphaT to 7.709411e-04.
	Linear fluid (dielectric constant: 78.4, screening length: 5.74355 Bohr) occupying 0.726017 of unit cell:	Completed after 0 iterations at t[s]:   7136.52
ElecMinimize: 	Predicted alpha/alphaT>3.000000, increasing alphaT to 2.312823e-03.
	Linear fluid (dielectric constant: 78.4, screening length: 5.74355 Bohr) occupying 0.724256 of unit cell:	Completed after 8 iterations at t[s]:   7163.48
ElecMinimize: 	Step increased F by 4.958400e-02, reducing alpha to 6.516932e-03.
	Linear fluid (dielectric constant: 78.4, screening length: 5.74355 Bohr) occupying 0.726027 of unit cell:	Completed after 10 iterations at t[s]:   7219.09
	FillingsUpdate:  mu: -0.141497797  nElectrons: 449.000000  magneticMoment: [ Abs: 5.33104  Tot: -5.13295 ]
	SubspaceRotationAdjust: set factor to 2.38
ElecMinimize: Iter:  27  F: -1957.757938123320173  |grad|_K:  1.754e-06  alpha:  6.517e-03  linmin: -4.676e-05  t[s]:   7254.51
	Linear fluid (dielectric constant: 78.4, screening length: 5.74355 Bohr) occupying 0.726038 of unit cell:	Completed after 1 iterations at t[s]:   7278.47
ElecMinimize: 	Predicted alpha/alphaT>3.000000, increasing alphaT to 1.955080e-02.
	Linear fluid (dielectric constant: 78.4, screening length: 5.74355 Bohr) occupying 0.726061 of unit cell:	Completed after 3 iterations at t[s]:   7304.24
ElecMinimize: 	Predicted alpha/alphaT>3.000000, increasing alphaT to 5.865239e-02.
	Linear fluid (dielectric constant: 78.4, screening length: 5.74355 Bohr) occupying 0.722412 of unit cell:	Completed after 9 iterations at t[s]:   7330.84
	Linear fluid (dielectric constant: 78.4, screening length: 5.74355 Bohr) occupying 0.726027 of unit cell:	Completed after 11 iterations at t[s]:   7359.38
	FillingsUpdate:  mu: -0.141483712  nElectrons: 449.000000  magneticMoment: [ Abs: 5.33531  Tot: -5.13706 ]
	SubspaceRotationAdjust: set factor to 3.03
ElecMinimize: Iter:  28  F: -1957.757938376790889  |grad|_K:  1.809e-06  alpha:  7.736e-05  linmin: -8.776e-05  t[s]:   7394.63
	Linear fluid (dielectric constant: 78.4, screening length: 5.74355 Bohr) occupying 0.726027 of unit cell:	Completed after 0 iterations at t[s]:   7418.31
ElecMinimize: 	Wrong curvature in test step, increasing alphaT to 2.320758e-04.
	Linear fluid (dielectric constant: 78.4, screening length: 5.74355 Bohr) occupying 0.726027 of unit cell:	Completed after 0 iterations at t[s]:   7438.76
	FillingsUpdate:  mu: -0.141483702  nElectrons: 449.000000  magneticMoment: [ Abs: 5.33990  Tot: -5.14148 ]
	SubspaceRotationAdjust: set factor to 3.98
ElecMinimize: Iter:  29  F: -1957.757938784350472  |grad|_K:  1.885e-06  alpha: -8.666e+00  linmin: -1.341e-04  t[s]:   7471.82
	Linear fluid (dielectric constant: 78.4, screening length: 5.74355 Bohr) occupying 0.599373 of unit cell:	Completed after 7 iterations at t[s]:   7496.21
	Linear fluid (dielectric constant: 78.4, screening length: 5.74355 Bohr) occupying 0.726028 of unit cell:	Completed after 12 iterations at t[s]:   7523.80
	FillingsUpdate:  mu: -0.141515035  nElectrons: 449.000000  magneticMoment: [ Abs: 5.53901  Tot: -5.33332 ]
	SubspaceRotationAdjust: set factor to 4.98
ElecMinimize: Iter:  30  F: -1957.757961634991943  |grad|_K:  1.975e-06  alpha:  3.060e-03  linmin: -1.848e-04  t[s]:   7558.92
	Linear fluid (dielectric constant: 78.4, screening length: 5.74355 Bohr) occupying 0.726025 of unit cell:	Completed after 2 iterations at t[s]:   7583.03
ElecMinimize: 	Predicted alpha/alphaT>3.000000, increasing alphaT to 9.178517e-03.
	Linear fluid (dielectric constant: 78.4, screening length: 5.74355 Bohr) occupying 0.726021 of unit cell:	Completed after 3 iterations at t[s]:   7609.24
ElecMinimize: 	Predicted alpha/alphaT>3.000000, increasing alphaT to 2.753555e-02.
	Linear fluid (dielectric constant: 78.4, screening length: 5.74355 Bohr) occupying 0.726013 of unit cell:	Completed after 6 iterations at t[s]:   7635.24
ElecMinimize: 	Predicted alpha/alphaT>3.000000, increasing alphaT to 8.260665e-02.
	Linear fluid (dielectric constant: 78.4, screening length: 5.74355 Bohr) occupying 0.715168 of unit cell:	Completed after 10 iterations at t[s]:   7663.19
ElecMinimize: 	Step increased F by 9.075681e-02, reducing alpha to 1.577312e-02.
	Linear fluid (dielectric constant: 78.4, screening length: 5.74355 Bohr) occupying 0.726017 of unit cell:	Completed after 11 iterations at t[s]:   7720.11
	FillingsUpdate:  mu: -0.141956474  nElectrons: 449.000000  magneticMoment: [ Abs: 6.67449  Tot: -6.42764 ]
	SubspaceRotationAdjust: set factor to 6.27
ElecMinimize: Iter:  31  F: -1957.758114463488937  |grad|_K:  1.868e-06  alpha:  1.577e-02  linmin: -2.201e-04  t[s]:   7755.28
	Linear fluid (dielectric constant: 78.4, screening length: 5.74355 Bohr) occupying 0.726012 of unit cell:	Completed after 6 iterations at t[s]:   7779.79
ElecMinimize: 	Predicted alpha/alphaT>3.000000, increasing alphaT to 4.731936e-02.
	Linear fluid (dielectric constant: 78.4, screening length: 5.74355 Bohr) occupying 0.726021 of unit cell:	Completed after 8 iterations at t[s]:   7806.92
	Linear fluid (dielectric constant: 78.4, screening length: 5.74355 Bohr) occupying 0.725928 of unit cell:	Completed after 9 iterations at t[s]:   7835.15
ElecMinimize: 	Step increased F by 1.012508e-03, reducing alpha to 9.949073e-03.
	Linear fluid (dielectric constant: 78.4, screening length: 5.74355 Bohr) occupying 0.726013 of unit cell:	Completed after 10 iterations at t[s]:   7891.18
	FillingsUpdate:  mu: -0.142191024  nElectrons: 449.000000  magneticMoment: [ Abs: 7.32338  Tot: -7.05340 ]
	SubspaceRotationAdjust: set factor to 7.85
	SubspaceRotationAdjust: resetting CG because factor has changed by 8.05721
	Linear fluid (dielectric constant: 78.4, screening length: 5.74355 Bohr) occupying 0.726013 of unit cell:	Completed after 0 iterations at t[s]:   7940.19
ElecMinimize: 	State modified externally: resetting search direction.
ElecMinimize: Iter:  32  F: -1957.758209426935537  |grad|_K:  2.080e-06  alpha:  9.949e-03
	Linear fluid (dielectric constant: 78.4, screening length: 5.74355 Bohr) occupying 0.726025 of unit cell:	Completed after 2 iterations at t[s]:   7997.32
ElecMinimize: 	Predicted alpha/alphaT>3.000000, increasing alphaT to 2.984722e-02.
	Linear fluid (dielectric constant: 78.4, screening length: 5.74355 Bohr) occupying 0.726047 of unit cell:	Completed after 6 iterations at t[s]:   8023.35
ElecMinimize: 	Predicted alpha/alphaT>3.000000, increasing alphaT to 8.954166e-02.
	Linear fluid (dielectric constant: 78.4, screening length: 5.74355 Bohr) occupying 0.726114 of unit cell:	Completed after 7 iterations at t[s]:   8051.02
	Linear fluid (dielectric constant: 78.4, screening length: 5.74355 Bohr) occupying 0.726182 of unit cell:	Completed after 8 iterations at t[s]:   8078.42
	FillingsUpdate:  mu: -0.140486739  nElectrons: 449.000000  magneticMoment: [ Abs: 7.65062  Tot: -7.37451 ]
	SubspaceRotationAdjust: set factor to 4.44
ElecMinimize: Iter:  33  F: -1957.758380975005593  |grad|_K:  2.545e-06  alpha:  1.503e-01  linmin: -3.305e-05  t[s]:   8113.33
	Linear fluid (dielectric constant: 78.4, screening length: 5.74355 Bohr) occupying 0.725718 of unit cell:	Completed after 9 iterations at t[s]:   8137.69
	Linear fluid (dielectric constant: 78.4, screening length: 5.74355 Bohr) occupying 0.725977 of unit cell:	Completed after 10 iterations at t[s]:   8166.29
	FillingsUpdate:  mu: -0.142413323  nElectrons: 449.000000  magneticMoment: [ Abs: 7.99028  Tot: -7.70773 ]
	SubspaceRotationAdjust: set factor to 2.2
ElecMinimize: Iter:  34  F: -1957.758497904298110  |grad|_K:  1.395e-06  alpha:  6.511e-02  linmin:  3.503e-06  t[s]:   8201.61
	Linear fluid (dielectric constant: 78.4, screening length: 5.74355 Bohr) occupying 0.726018 of unit cell:	Completed after 6 iterations at t[s]:   8225.71
ElecMinimize: 	Predicted alpha/alphaT>3.000000, increasing alphaT to 1.953272e-01.
	Linear fluid (dielectric constant: 78.4, screening length: 5.74355 Bohr) occupying 0.726100 of unit cell:	Completed after 8 iterations at t[s]:   8252.53
	Linear fluid (dielectric constant: 78.4, screening length: 5.74355 Bohr) occupying 0.726143 of unit cell:	Completed after 6 iterations at t[s]:   8279.72
	FillingsUpdate:  mu: -0.140890455  nElectrons: 449.000000  magneticMoment: [ Abs: 8.70309  Tot: -8.40230 ]
	SubspaceRotationAdjust: set factor to 1.49
ElecMinimize: Iter:  35  F: -1957.758621636865200  |grad|_K:  1.510e-06  alpha:  2.615e-01  linmin:  5.839e-06  t[s]:   8314.63
	Linear fluid (dielectric constant: 78.4, screening length: 5.74355 Bohr) occupying 0.726171 of unit cell:	Completed after 6 iterations at t[s]:   8338.88
ElecMinimize: 	Predicted alpha/alphaT>3.000000, increasing alphaT to 7.843641e-01.
	Linear fluid (dielectric constant: 78.4, screening length: 5.74355 Bohr) occupying 0.726244 of unit cell:	Completed after 9 iterations at t[s]:   8365.63
	Linear fluid (dielectric constant: 78.4, screening length: 5.74355 Bohr) occupying 0.726236 of unit cell:	Completed after 2 iterations at t[s]:   8392.35
	FillingsUpdate:  mu: -0.142053424  nElectrons: 449.000000  magneticMoment: [ Abs: 11.35526  Tot: -10.96229 ]
	SubspaceRotationAdjust: set factor to 1.13
ElecMinimize: Iter:  36  F: -1957.759038329450050  |grad|_K:  1.862e-06  alpha:  7.222e-01  linmin:  2.075e-05  t[s]:   8425.85
	Linear fluid (dielectric constant: 78.4, screening length: 5.74355 Bohr) occupying 0.723624 of unit cell:	Completed after 10 iterations at t[s]:   8450.38
	Linear fluid (dielectric constant: 78.4, screening length: 5.74355 Bohr) occupying 0.726240 of unit cell:	Completed after 11 iterations at t[s]:   8479.22
	FillingsUpdate:  mu: -0.142004034  nElectrons: 449.000000  magneticMoment: [ Abs: 11.37552  Tot: -10.98167 ]
	SubspaceRotationAdjust: set factor to 1.68
ElecMinimize: Iter:  37  F: -1957.759043626031826  |grad|_K:  1.764e-06  alpha:  3.489e-03  linmin: -3.298e-04  t[s]:   8513.81
	Linear fluid (dielectric constant: 78.4, screening length: 5.74355 Bohr) occupying 0.726246 of unit cell:	Completed after 0 iterations at t[s]:   8537.61
ElecMinimize: 	Predicted alpha/alphaT>3.000000, increasing alphaT to 1.046822e-02.
	Linear fluid (dielectric constant: 78.4, screening length: 5.74355 Bohr) occupying 0.726257 of unit cell:	Completed after 2 iterations at t[s]:   8562.22
ElecMinimize: 	Predicted alpha/alphaT>3.000000, increasing alphaT to 3.140465e-02.
	Linear fluid (dielectric constant: 78.4, screening length: 5.74355 Bohr) occupying 0.726290 of unit cell:	Completed after 6 iterations at t[s]:   8588.73
ElecMinimize: 	Predicted alpha/alphaT>3.000000, increasing alphaT to 9.421394e-02.
	Linear fluid (dielectric constant: 78.4, screening length: 5.74355 Bohr) occupying 0.726655 of unit cell:	Completed after 9 iterations at t[s]:   8616.07
	FillingsUpdate:  mu: -0.139122715  nElectrons: 449.000000  magneticMoment: [ Abs: 12.75673  Tot: -12.29297 ]
	SubspaceRotationAdjust: set factor to 0.995
	SubspaceRotationAdjust: resetting CG because factor has changed by 0.12665
	Linear fluid (dielectric constant: 78.4, screening length: 5.74355 Bohr) occupying 0.726655 of unit cell:	Completed after 0 iterations at t[s]:   8664.85
ElecMinimize: 	State modified externally: resetting search direction.
ElecMinimize: Iter:  38  F: -1957.759390189804435  |grad|_K:  1.898e-06  alpha:  2.557e-01
	Linear fluid (dielectric constant: 78.4, screening length: 5.74355 Bohr) occupying 0.726473 of unit cell:	Completed after 8 iterations at t[s]:   8721.91
	Linear fluid (dielectric constant: 78.4, screening length: 5.74355 Bohr) occupying 0.726515 of unit cell:	Completed after 7 iterations at t[s]:   8749.17
	FillingsUpdate:  mu: -0.140423635  nElectrons: 449.000000  magneticMoment: [ Abs: 12.78495  Tot: -12.31349 ]
	SubspaceRotationAdjust: set factor to 1.29
ElecMinimize: Iter:  39  F: -1957.759536715393097  |grad|_K:  7.529e-07  alpha:  1.982e-01  linmin: -5.571e-04  t[s]:   8783.86
	Linear fluid (dielectric constant: 78.4, screening length: 5.74355 Bohr) occupying 0.726486 of unit cell:	Completed after 2 iterations at t[s]:   8807.91
	Linear fluid (dielectric constant: 78.4, screening length: 5.74355 Bohr) occupying 0.726433 of unit cell:	Completed after 6 iterations at t[s]:   8834.48
	FillingsUpdate:  mu: -0.140720551  nElectrons: 449.000000  magneticMoment: [ Abs: 12.89658  Tot: -12.39973 ]
	SubspaceRotationAdjust: set factor to 1.51
ElecMinimize: Iter:  40  F: -1957.759647028884956  |grad|_K:  6.580e-07  alpha:  5.724e-01  linmin: -1.135e-04  t[s]:   8869.53
	Linear fluid (dielectric constant: 78.4, screening length: 5.74355 Bohr) occupying 0.726510 of unit cell:	Completed after 8 iterations at t[s]:   8894.43
	Linear fluid (dielectric constant: 78.4, screening length: 5.74355 Bohr) occupying 0.726508 of unit cell:	Completed after 0 iterations at t[s]:   8921.18
	FillingsUpdate:  mu: -0.139351132  nElectrons: 449.000000  magneticMoment: [ Abs: 13.11996  Tot: -12.58558 ]
	SubspaceRotationAdjust: set factor to 1
ElecMinimize: Iter:  41  F: -1957.759723517796829  |grad|_K:  8.774e-07  alpha:  5.567e-01  linmin:  5.432e-07  t[s]:   8954.90
	Linear fluid (dielectric constant: 78.4, screening length: 5.74355 Bohr) occupying 0.726281 of unit cell:	Completed after 9 iterations at t[s]:   8979.56
	Linear fluid (dielectric constant: 78.4, screening length: 5.74355 Bohr) occupying 0.726357 of unit cell:	Completed after 7 iterations at t[s]:   9007.57
	FillingsUpdate:  mu: -0.140281399  nElectrons: 449.000000  magneticMoment: [ Abs: 13.49266  Tot: -12.90483 ]
	SubspaceRotationAdjust: set factor to 1.16
ElecMinimize: Iter:  42  F: -1957.759792400401466  |grad|_K:  6.567e-07  alpha:  3.678e-01  linmin: -1.029e-06  t[s]:   9042.72
	Linear fluid (dielectric constant: 78.4, screening length: 5.74355 Bohr) occupying 0.726330 of unit cell:	Completed after 2 iterations at t[s]:   9066.52
	Linear fluid (dielectric constant: 78.4, screening length: 5.74355 Bohr) occupying 0.726304 of unit cell:	Completed after 3 iterations at t[s]:   9092.89
	FillingsUpdate:  mu: -0.140508320  nElectrons: 449.000000  magneticMoment: [ Abs: 14.08683  Tot: -13.43415 ]
	SubspaceRotationAdjust: set factor to 1.01
ElecMinimize: Iter:  43  F: -1957.759870140859448  |grad|_K:  7.842e-07  alpha:  7.350e-01  linmin:  1.190e-05  t[s]:   9127.18
	Linear fluid (dielectric constant: 78.4, screening length: 5.74355 Bohr) occupying 0.726595 of unit cell:	Completed after 8 iterations at t[s]:   9151.72
	Linear fluid (dielectric constant: 78.4, screening length: 5.74355 Bohr) occupying 0.726460 of unit cell:	Completed after 8 iterations at t[s]:   9179.47
	FillingsUpdate:  mu: -0.139308030  nElectrons: 449.000000  magneticMoment: [ Abs: 14.66730  Tot: -13.96615 ]
	SubspaceRotationAdjust: set factor to 0.96
ElecMinimize: Iter:  44  F: -1957.759932322675922  |grad|_K:  6.944e-07  alpha:  4.038e-01  linmin: -1.791e-06  t[s]:   9214.60
	Linear fluid (dielectric constant: 78.4, screening length: 5.74355 Bohr) occupying 0.726529 of unit cell:	Completed after 2 iterations at t[s]:   9238.75
	Linear fluid (dielectric constant: 78.4, screening length: 5.74355 Bohr) occupying 0.726552 of unit cell:	Completed after 2 iterations at t[s]:   9264.55
	FillingsUpdate:  mu: -0.139344916  nElectrons: 449.000000  magneticMoment: [ Abs: 15.37848  Tot: -14.63506 ]
	SubspaceRotationAdjust: set factor to 1.2
ElecMinimize: Iter:  45  F: -1957.759994860881307  |grad|_K:  6.605e-07  alpha:  5.342e-01  linmin:  1.049e-05  t[s]:   9298.64
	Linear fluid (dielectric constant: 78.4, screening length: 5.74355 Bohr) occupying 0.726617 of unit cell:	Completed after 6 iterations at t[s]:   9322.74
	Linear fluid (dielectric constant: 78.4, screening length: 5.74355 Bohr) occupying 0.726594 of unit cell:	Completed after 2 iterations at t[s]:   9349.76
	FillingsUpdate:  mu: -0.139685360  nElectrons: 449.000000  magneticMoment: [ Abs: 15.84384  Tot: -15.08260 ]
	SubspaceRotationAdjust: set factor to 1.15
ElecMinimize: Iter:  46  F: -1957.760031575583980  |grad|_K:  5.937e-07  alpha:  3.449e-01  linmin: -4.874e-06  t[s]:   9384.06
	Linear fluid (dielectric constant: 78.4, screening length: 5.74355 Bohr) occupying 0.726715 of unit cell:	Completed after 6 iterations at t[s]:   9408.28
	Linear fluid (dielectric constant: 78.4, screening length: 5.74355 Bohr) occupying 0.726726 of unit cell:	Completed after 1 iterations at t[s]:   9435.56
	FillingsUpdate:  mu: -0.139134669  nElectrons: 449.000000  magneticMoment: [ Abs: 16.30575  Tot: -15.53787 ]
	SubspaceRotationAdjust: set factor to 1.57
ElecMinimize: Iter:  47  F: -1957.760064540098710  |grad|_K:  5.598e-07  alpha:  3.761e-01  linmin: -1.767e-05  t[s]:   9469.19
	Linear fluid (dielectric constant: 78.4, screening length: 5.74355 Bohr) occupying 0.726826 of unit cell:	Completed after 6 iterations at t[s]:   9493.79
	Linear fluid (dielectric constant: 78.4, screening length: 5.74355 Bohr) occupying 0.726816 of unit cell:	Completed after 0 iterations at t[s]:   9520.59
	FillingsUpdate:  mu: -0.138651559  nElectrons: 449.000000  magneticMoment: [ Abs: 16.69376  Tot: -15.92699 ]
	SubspaceRotationAdjust: set factor to 1.65
ElecMinimize: Iter:  48  F: -1957.760090840537259  |grad|_K:  4.608e-07  alpha:  3.395e-01  linmin: -8.748e-07  t[s]:   9554.62
	Linear fluid (dielectric constant: 78.4, screening length: 5.74355 Bohr) occupying 0.726750 of unit cell:	Completed after 7 iterations at t[s]:   9579.31
	Linear fluid (dielectric constant: 78.4, screening length: 5.74355 Bohr) occupying 0.726778 of unit cell:	Completed after 3 iterations at t[s]:   9606.53
	FillingsUpdate:  mu: -0.139071646  nElectrons: 449.000000  magneticMoment: [ Abs: 16.84009  Tot: -16.07603 ]
	SubspaceRotationAdjust: set factor to 1.47
ElecMinimize: Iter:  49  F: -1957.760100515547720  |grad|_K:  3.061e-07  alpha:  1.930e-01  linmin:  3.597e-06  t[s]:   9640.55
	Linear fluid (dielectric constant: 78.4, screening length: 5.74355 Bohr) occupying 0.726775 of unit cell:	Completed after 2 iterations at t[s]:   9664.54
	Linear fluid (dielectric constant: 78.4, screening length: 5.74355 Bohr) occupying 0.726774 of unit cell:	Completed after 0 iterations at t[s]:   9690.06
	FillingsUpdate:  mu: -0.138973608  nElectrons: 449.000000  magneticMoment: [ Abs: 16.92859  Tot: -16.16792 ]
	SubspaceRotationAdjust: set factor to 1.88
ElecMinimize: Iter:  50  F: -1957.760107289559073  |grad|_K:  2.122e-07  alpha:  2.905e-01  linmin: -1.512e-05  t[s]:   9723.97
	Linear fluid (dielectric constant: 78.4, screening length: 5.74355 Bohr) occupying 0.726780 of unit cell:	Completed after 5 iterations at t[s]:   9748.02
	Linear fluid (dielectric constant: 78.4, screening length: 5.74355 Bohr) occupying 0.726780 of unit cell:	Completed after 0 iterations at t[s]:   9774.49
	FillingsUpdate:  mu: -0.138692102  nElectrons: 449.000000  magneticMoment: [ Abs: 16.95576  Tot: -16.19644 ]
	SubspaceRotationAdjust: set factor to 1.59
ElecMinimize: Iter:  51  F: -1957.760110387684108  |grad|_K:  2.330e-07  alpha:  2.670e-01  linmin: -1.561e-05  t[s]:   9808.22
	Linear fluid (dielectric constant: 78.4, screening length: 5.74355 Bohr) occupying 0.726728 of unit cell:	Completed after 3 iterations at t[s]:   9832.35
	Linear fluid (dielectric constant: 78.4, screening length: 5.74355 Bohr) occupying 0.726735 of unit cell:	Completed after 2 iterations at t[s]:   9858.54
	FillingsUpdate:  mu: -0.138860432  nElectrons: 449.000000  magneticMoment: [ Abs: 16.96650  Tot: -16.20799 ]
	SubspaceRotationAdjust: set factor to 1.78
ElecMinimize: Iter:  52  F: -1957.760113509420080  |grad|_K:  1.882e-07  alpha:  2.302e-01  linmin: -2.193e-05  t[s]:   9892.39
	Linear fluid (dielectric constant: 78.4, screening length: 5.74355 Bohr) occupying 0.726708 of unit cell:	Completed after 2 iterations at t[s]:   9916.26
	Linear fluid (dielectric constant: 78.4, screening length: 5.74355 Bohr) occupying 0.726695 of unit cell:	Completed after 3 iterations at t[s]:   9942.11
	FillingsUpdate:  mu: -0.139019519  nElectrons: 449.000000  magneticMoment: [ Abs: 16.95694  Tot: -16.19791 ]
	SubspaceRotationAdjust: set factor to 1.38
ElecMinimize: Iter:  53  F: -1957.760116469525883  |grad|_K:  2.041e-07  alpha:  3.363e-01  linmin: -1.204e-06  t[s]:   9976.17
	Linear fluid (dielectric constant: 78.4, screening length: 5.74355 Bohr) occupying 0.726711 of unit cell:	Completed after 5 iterations at t[s]:  10000.21
	Linear fluid (dielectric constant: 78.4, screening length: 5.74355 Bohr) occupying 0.726704 of unit cell:	Completed after 3 iterations at t[s]:  10026.79
	FillingsUpdate:  mu: -0.138814034  nElectrons: 449.000000  magneticMoment: [ Abs: 16.94082  Tot: -16.18075 ]
	SubspaceRotationAdjust: set factor to 1.59
ElecMinimize: Iter:  54  F: -1957.760118394058964  |grad|_K:  1.428e-07  alpha:  1.860e-01  linmin:  7.134e-06  t[s]:  10061.04
	Linear fluid (dielectric constant: 78.4, screening length: 5.74355 Bohr) occupying 0.726706 of unit cell:	Completed after 1 iterations at t[s]:  10085.00
	Linear fluid (dielectric constant: 78.4, screening length: 5.74355 Bohr) occupying 0.726708 of unit cell:	Completed after 2 iterations at t[s]:  10111.07
	FillingsUpdate:  mu: -0.138766493  nElectrons: 449.000000  magneticMoment: [ Abs: 16.91294  Tot: -16.15153 ]
	SubspaceRotationAdjust: set factor to 1.75
ElecMinimize: Iter:  55  F: -1957.760119987771304  |grad|_K:  1.297e-07  alpha:  3.257e-01  linmin: -3.585e-06  t[s]:  10144.72
	Linear fluid (dielectric constant: 78.4, screening length: 5.74355 Bohr) occupying 0.726686 of unit cell:	Completed after 2 iterations at t[s]:  10168.78
	Linear fluid (dielectric constant: 78.4, screening length: 5.74355 Bohr) occupying 0.726691 of unit cell:	Completed after 1 iterations at t[s]:  10194.30
	FillingsUpdate:  mu: -0.138878032  nElectrons: 449.000000  magneticMoment: [ Abs: 16.88342  Tot: -16.12139 ]
	SubspaceRotationAdjust: set factor to 1.76
ElecMinimize: Iter:  56  F: -1957.760121035792508  |grad|_K:  1.177e-07  alpha:  2.517e-01  linmin:  2.173e-05  t[s]:  10228.16
	Linear fluid (dielectric constant: 78.4, screening length: 5.74355 Bohr) occupying 0.726685 of unit cell:	Completed after 2 iterations at t[s]:  10251.96
	Linear fluid (dielectric constant: 78.4, screening length: 5.74355 Bohr) occupying 0.726682 of unit cell:	Completed after 0 iterations at t[s]:  10277.77
	FillingsUpdate:  mu: -0.138902327  nElectrons: 449.000000  magneticMoment: [ Abs: 16.83041  Tot: -16.06861 ]
	SubspaceRotationAdjust: set factor to 2.41
ElecMinimize: Iter:  57  F: -1957.760122287106697  |grad|_K:  1.140e-07  alpha:  3.757e-01  linmin: -6.881e-05  t[s]:  10311.24
	Linear fluid (dielectric constant: 78.4, screening length: 5.74355 Bohr) occupying 0.726682 of unit cell:	Completed after 2 iterations at t[s]:  10335.00
	Linear fluid (dielectric constant: 78.4, screening length: 5.74355 Bohr) occupying 0.726682 of unit cell:	Completed after 0 iterations at t[s]:  10360.54
	FillingsUpdate:  mu: -0.138870333  nElectrons: 449.000000  magneticMoment: [ Abs: 16.77333  Tot: -16.01319 ]
	SubspaceRotationAdjust: set factor to 2.36
ElecMinimize: Iter:  58  F: -1957.760123390246918  |grad|_K:  1.282e-07  alpha:  3.290e-01  linmin: -2.539e-06  t[s]:  10393.79
	Linear fluid (dielectric constant: 78.4, screening length: 5.74355 Bohr) occupying 0.726663 of unit cell:	Completed after 3 iterations at t[s]:  10417.70
	Linear fluid (dielectric constant: 78.4, screening length: 5.74355 Bohr) occupying 0.726670 of unit cell:	Completed after 2 iterations at t[s]:  10443.80
	FillingsUpdate:  mu: -0.138947526  nElectrons: 449.000000  magneticMoment: [ Abs: 16.71635  Tot: -15.95884 ]
	SubspaceRotationAdjust: set factor to 2.37
ElecMinimize: Iter:  59  F: -1957.760124223434332  |grad|_K:  8.984e-08  alpha:  2.115e-01  linmin:  1.127e-06  t[s]:  10477.66
	Linear fluid (dielectric constant: 78.4, screening length: 5.74355 Bohr) occupying 0.726667 of unit cell:	Completed after 0 iterations at t[s]:  10501.21
	Linear fluid (dielectric constant: 78.4, screening length: 5.74355 Bohr) occupying 0.726664 of unit cell:	Completed after 1 iterations at t[s]:  10526.49
	FillingsUpdate:  mu: -0.138981966  nElectrons: 449.000000  magneticMoment: [ Abs: 16.65139  Tot: -15.89814 ]
	SubspaceRotationAdjust: set factor to 2.78
ElecMinimize: Iter:  60  F: -1957.760124877140015  |grad|_K:  8.584e-08  alpha:  3.826e-01  linmin:  7.783e-05  t[s]:  10560.17
	Linear fluid (dielectric constant: 78.4, screening length: 5.74355 Bohr) occupying 0.726670 of unit cell:	Completed after 2 iterations at t[s]:  10584.27
	Linear fluid (dielectric constant: 78.4, screening length: 5.74355 Bohr) occupying 0.726668 of unit cell:	Completed after 0 iterations at t[s]:  10609.69
	FillingsUpdate:  mu: -0.138974053  nElectrons: 449.000000  magneticMoment: [ Abs: 16.60915  Tot: -15.85890 ]
	SubspaceRotationAdjust: set factor to 2.36
ElecMinimize: Iter:  61  F: -1957.760125283027719  |grad|_K:  8.540e-08  alpha:  2.404e-01  linmin:  7.750e-05  t[s]:  10643.17
	Linear fluid (dielectric constant: 78.4, screening length: 5.74355 Bohr) occupying 0.726666 of unit cell:	Completed after 3 iterations at t[s]:  10667.20
	Linear fluid (dielectric constant: 78.4, screening length: 5.74355 Bohr) occupying 0.726667 of unit cell:	Completed after 0 iterations at t[s]:  10693.67
	FillingsUpdate:  mu: -0.139025579  nElectrons: 449.000000  magneticMoment: [ Abs: 16.58177  Tot: -15.83344 ]
	SubspaceRotationAdjust: set factor to 1.66
ElecMinimize: Iter:  62  F: -1957.760125498194611  |grad|_K:  6.637e-08  alpha:  1.489e-01  linmin:  1.463e-05  t[s]:  10726.81
	Linear fluid (dielectric constant: 78.4, screening length: 5.74355 Bohr) occupying 0.726672 of unit cell:	Completed after 0 iterations at t[s]:  10750.51
	Linear fluid (dielectric constant: 78.4, screening length: 5.74355 Bohr) occupying 0.726677 of unit cell:	Completed after 1 iterations at t[s]:  10775.97
	FillingsUpdate:  mu: -0.138984641  nElectrons: 449.000000  magneticMoment: [ Abs: 16.55095  Tot: -15.80480 ]
	SubspaceRotationAdjust: set factor to 1.23
ElecMinimize: Iter:  63  F: -1957.760125647687801  |grad|_K:  6.117e-08  alpha:  2.773e-01  linmin:  9.547e-05  t[s]:  10809.96
	Linear fluid (dielectric constant: 78.4, screening length: 5.74355 Bohr) occupying 0.726677 of unit cell:	Completed after 0 iterations at t[s]:  10833.32
	Linear fluid (dielectric constant: 78.4, screening length: 5.74355 Bohr) occupying 0.726677 of unit cell:	Completed after 0 iterations at t[s]:  10858.39
	FillingsUpdate:  mu: -0.138986279  nElectrons: 449.000000  magneticMoment: [ Abs: 16.52493  Tot: -15.78082 ]
	SubspaceRotationAdjust: set factor to 1.78
ElecMinimize: Iter:  64  F: -1957.760125830674951  |grad|_K:  5.588e-08  alpha:  2.892e-01  linmin:  1.489e-07  t[s]:  10891.92
	Linear fluid (dielectric constant: 78.4, screening length: 5.74355 Bohr) occupying 0.726669 of unit cell:	Completed after 2 iterations at t[s]:  10915.39
	Linear fluid (dielectric constant: 78.4, screening length: 5.74355 Bohr) occupying 0.726673 of unit cell:	Completed after 2 iterations at t[s]:  10941.55
	FillingsUpdate:  mu: -0.139055469  nElectrons: 449.000000  magneticMoment: [ Abs: 16.51576  Tot: -15.77250 ]
	SubspaceRotationAdjust: set factor to 1.61
ElecMinimize: Iter:  65  F: -1957.760125889541314  |grad|_K:  4.622e-08  alpha:  1.327e-01  linmin:  7.530e-05  t[s]:  10975.58
	Linear fluid (dielectric constant: 78.4, screening length: 5.74355 Bohr) occupying 0.726674 of unit cell:	Completed after 0 iterations at t[s]:  10999.07
	Linear fluid (dielectric constant: 78.4, screening length: 5.74355 Bohr) occupying 0.726674 of unit cell:	Completed after 0 iterations at t[s]:  11024.23
	FillingsUpdate:  mu: -0.139055899  nElectrons: 449.000000  magneticMoment: [ Abs: 16.50789  Tot: -15.76575 ]
	SubspaceRotationAdjust: set factor to 2.1
ElecMinimize: Iter:  66  F: -1957.760126007826557  |grad|_K:  4.016e-08  alpha:  2.352e-01  linmin: -7.220e-07  t[s]:  11057.72
[...]
	Linear fluid (dielectric constant: 78.4, screening length: 5.74355 Bohr) occupying 0.726570 of unit cell:	Completed after 0 iterations at t[s]:  16576.90
	FillingsUpdate:  mu: -0.139273005  nElectrons: 449.000000  magneticMoment: [ Abs: 16.53861  Tot: -15.79262 ]
	SubspaceRotationAdjust: set factor to 0.166
ElecMinimize: Iter:   6  F: -1957.760136170297983  |grad|_K:  1.402e-07  alpha:  7.810e-01  linmin: -2.036e-04  t[s]:  16610.23
	Linear fluid (dielectric constant: 78.4, screening length: 5.74355 Bohr) occupying 0.726571 of unit cell:	Completed after 6 iterations at t[s]:  16634.53
	Linear fluid (dielectric constant: 78.4, screening length: 5.74355 Bohr) occupying 0.726571 of unit cell:	Completed after 1 iterations at t[s]:  16661.02
	FillingsUpdate:  mu: -0.139061763  nElectrons: 449.000000  magneticMoment: [ Abs: 16.53757  Tot: -15.79145 ]
	SubspaceRotationAdjust: set factor to 0.171
ElecMinimize: Iter:   7  F: -1957.760138712972775  |grad|_K:  9.164e-08  alpha:  5.256e-01  linmin: -7.919e-05  t[s]:  16694.67
	Linear fluid (dielectric constant: 78.4, screening length: 5.74355 Bohr) occupying 0.726574 of unit cell:	Completed after 2 iterations at t[s]:  16718.79
	Linear fluid (dielectric constant: 78.4, screening length: 5.74355 Bohr) occupying 0.726574 of unit cell:	Completed after 0 iterations at t[s]:  16744.88
	FillingsUpdate:  mu: -0.139052015  nElectrons: 449.000000  magneticMoment: [ Abs: 16.53628  Tot: -15.79014 ]
	SubspaceRotationAdjust: set factor to 0.179
ElecMinimize: Iter:   8  F: -1957.760139831147626  |grad|_K:  5.694e-08  alpha:  5.352e-01  linmin: -2.323e-05  t[s]:  16778.06
	Linear fluid (dielectric constant: 78.4, screening length: 5.74355 Bohr) occupying 0.726580 of unit cell:	Completed after 0 iterations at t[s]:  16801.97
	Linear fluid (dielectric constant: 78.4, screening length: 5.74355 Bohr) occupying 0.726581 of unit cell:	Completed after 0 iterations at t[s]:  16826.91
	FillingsUpdate:  mu: -0.139054483  nElectrons: 449.000000  magneticMoment: [ Abs: 16.53474  Tot: -15.78860 ]
	SubspaceRotationAdjust: set factor to 0.197
ElecMinimize: Iter:   9  F: -1957.760140318506046  |grad|_K:  4.363e-08  alpha:  6.105e-01  linmin: -2.355e-07  t[s]:  16860.37
	Linear fluid (dielectric constant: 78.4, screening length: 5.74355 Bohr) occupying 0.726590 of unit cell:	Completed after 1 iterations at t[s]:  16884.32
	Linear fluid (dielectric constant: 78.4, screening length: 5.74355 Bohr) occupying 0.726586 of unit cell:	Completed after 0 iterations at t[s]:  16909.95
	FillingsUpdate:  mu: -0.139007587  nElectrons: 449.000000  magneticMoment: [ Abs: 16.53364  Tot: -15.78752 ]
	SubspaceRotationAdjust: set factor to 0.209
ElecMinimize: Iter:  10  F: -1957.760140447110189  |grad|_K:  3.965e-08  alpha:  3.515e-01  linmin: -6.350e-05  t[s]:  16943.20
	Linear fluid (dielectric constant: 78.4, screening length: 5.74355 Bohr) occupying 0.726591 of unit cell:	Completed after 1 iterations at t[s]:  16966.97
	Linear fluid (dielectric constant: 78.4, screening length: 5.74355 Bohr) occupying 0.726590 of unit cell:	Completed after 0 iterations at t[s]:  16992.41
	FillingsUpdate:  mu: -0.139005977  nElectrons: 449.000000  magneticMoment: [ Abs: 16.53230  Tot: -15.78620 ]
	SubspaceRotationAdjust: set factor to 0.25
ElecMinimize: Iter:  11  F: -1957.760140550903316  |grad|_K:  2.895e-08  alpha:  2.847e-01  linmin: -3.394e-04  t[s]:  17026.39
	Linear fluid (dielectric constant: 78.4, screening length: 5.74355 Bohr) occupying 0.726593 of unit cell:	Completed after 1 iterations at t[s]:  17050.32
	Linear fluid (dielectric constant: 78.4, screening length: 5.74355 Bohr) occupying 0.726593 of unit cell:	Completed after 0 iterations at t[s]:  17075.89
	FillingsUpdate:  mu: -0.139012707  nElectrons: 449.000000  magneticMoment: [ Abs: 16.53094  Tot: -15.78488 ]
	SubspaceRotationAdjust: set factor to 0.321
ElecMinimize: Iter:  12  F: -1957.760140618854848  |grad|_K:  2.301e-08  alpha:  2.889e-01  linmin: -7.259e-04  t[s]:  17109.38
	Linear fluid (dielectric constant: 78.4, screening length: 5.74355 Bohr) occupying 0.726596 of unit cell:	Completed after 0 iterations at t[s]:  17132.68
	Linear fluid (dielectric constant: 78.4, screening length: 5.74355 Bohr) occupying 0.726597 of unit cell:	Completed after 0 iterations at t[s]:  17158.15
	FillingsUpdate:  mu: -0.139013426  nElectrons: 449.000000  magneticMoment: [ Abs: 16.52829  Tot: -15.78230 ]
	SubspaceRotationAdjust: set factor to 0.393
ElecMinimize: Iter:  13  F: -1957.760140702241188  |grad|_K:  2.544e-08  alpha:  4.806e-01  linmin:  1.714e-06  t[s]:  17191.55
	Linear fluid (dielectric constant: 78.4, screening length: 5.74355 Bohr) occupying 0.726601 of unit cell:	Completed after 0 iterations at t[s]:  17215.02
	Linear fluid (dielectric constant: 78.4, screening length: 5.74355 Bohr) occupying 0.726601 of unit cell:	Completed after 0 iterations at t[s]:  17240.40
	FillingsUpdate:  mu: -0.139014047  nElectrons: 449.000000  magneticMoment: [ Abs: 16.52432  Tot: -15.77843 ]
	SubspaceRotationAdjust: set factor to 0.47
	SubspaceRotationAdjust: resetting CG because factor has changed by 7.91594
	Linear fluid (dielectric constant: 78.4, screening length: 5.74355 Bohr) occupying 0.726601 of unit cell:	Completed after 0 iterations at t[s]:  17288.16
ElecMinimize: 	State modified externally: resetting search direction.
ElecMinimize: Iter:  14  F: -1957.760140765402184  |grad|_K:  2.504e-08  alpha:  3.981e-01
	Linear fluid (dielectric constant: 78.4, screening length: 5.74355 Bohr) occupying 0.726599 of unit cell:	Completed after 0 iterations at t[s]:  17344.57
	Linear fluid (dielectric constant: 78.4, screening length: 5.74355 Bohr) occupying 0.726599 of unit cell:	Completed after 0 iterations at t[s]:  17369.59
	FillingsUpdate:  mu: -0.139014027  nElectrons: 449.000000  magneticMoment: [ Abs: 16.52197  Tot: -15.77612 ]
	SubspaceRotationAdjust: set factor to 0.623
ElecMinimize: Iter:  15  F: -1957.760140843384761  |grad|_K:  1.829e-08  alpha:  5.065e-01  linmin: -7.868e-06  t[s]:  17403.00
	Linear fluid (dielectric constant: 78.4, screening length: 5.74355 Bohr) occupying 0.726596 of unit cell:	Completed after 2 iterations at t[s]:  17426.64
	Linear fluid (dielectric constant: 78.4, screening length: 5.74355 Bohr) occupying 0.726598 of unit cell:	Completed after 0 iterations at t[s]:  17452.78
ElecMinimize: 	Step increased F by 2.772367e-08, reducing alpha to 2.006983e-02.
	Linear fluid (dielectric constant: 78.4, screening length: 5.74355 Bohr) occupying 0.726599 of unit cell:	Completed after 0 iterations at t[s]:  17506.58
ElecMinimize: 	Step increased F by 4.003846e-08, reducing alpha to 2.006983e-03.
	Linear fluid (dielectric constant: 78.4, screening length: 5.74355 Bohr) occupying 0.726599 of unit cell:	Completed after 0 iterations at t[s]:  17559.73
ElecMinimize: 	Step increased F by 4.164963e-08, reducing alpha to 2.006983e-04.
ElecMinimize: 	Step failed to reduce F after 3 attempts. Quitting step.
ElecMinimize: 	Undoing step.
	Linear fluid (dielectric constant: 78.4, screening length: 5.74355 Bohr) occupying 0.726599 of unit cell:	Completed after 0 iterations at t[s]:  17613.65
ElecMinimize: 	Step failed: resetting search direction.
	FillingsUpdate:  mu: -0.139045352  nElectrons: 449.000000  magneticMoment: [ Abs: 16.52196  Tot: -15.77610 ]
	SubspaceRotationAdjust: set factor to 0.627
ElecMinimize: Iter:  16  F: -1957.760140801687612  |grad|_K:  2.896e-08  alpha:  2.007e-04
	Linear fluid (dielectric constant: 78.4, screening length: 5.74355 Bohr) occupying 0.726604 of unit cell:	Completed after 1 iterations at t[s]:  17671.09
	Linear fluid (dielectric constant: 78.4, screening length: 5.74355 Bohr) occupying 0.726601 of unit cell:	Completed after 0 iterations at t[s]:  17696.79
	FillingsUpdate:  mu: -0.138991381  nElectrons: 449.000000  magneticMoment: [ Abs: 16.52060  Tot: -15.77478 ]
	SubspaceRotationAdjust: set factor to 0.464
ElecMinimize: Iter:  17  F: -1957.760140862594653  |grad|_K:  2.226e-08  alpha:  2.676e-01  linmin:  1.435e-03  t[s]:  17730.41
	Linear fluid (dielectric constant: 78.4, screening length: 5.74355 Bohr) occupying 0.726600 of unit cell:	Completed after 0 iterations at t[s]:  17754.19
	Linear fluid (dielectric constant: 78.4, screening length: 5.74355 Bohr) occupying 0.726600 of unit cell:	Completed after 0 iterations at t[s]:  17779.88
	FillingsUpdate:  mu: -0.138992777  nElectrons: 449.000000  magneticMoment: [ Abs: 16.51759  Tot: -15.77184 ]
	SubspaceRotationAdjust: set factor to 0.439
ElecMinimize: Iter:  18  F: -1957.760140894343976  |grad|_K:  1.875e-08  alpha:  3.317e-01  linmin: -6.442e-04  t[s]:  17813.69
	Linear fluid (dielectric constant: 78.4, screening length: 5.74355 Bohr) occupying 0.726596 of unit cell:	Completed after 2 iterations at t[s]:  17837.98
	Linear fluid (dielectric constant: 78.4, screening length: 5.74355 Bohr) occupying 0.726598 of unit cell:	Completed after 0 iterations at t[s]:  17863.61
ElecMinimize: 	Step increased F by 1.002581e-08, reducing alpha to 1.293696e-02.
	Linear fluid (dielectric constant: 78.4, screening length: 5.74355 Bohr) occupying 0.726599 of unit cell:	Completed after 0 iterations at t[s]:  17917.37
ElecMinimize: 	Step increased F by 7.306198e-09, reducing alpha to 1.293696e-03.
	Linear fluid (dielectric constant: 78.4, screening length: 5.74355 Bohr) occupying 0.726600 of unit cell:	Completed after 0 iterations at t[s]:  17970.67
ElecMinimize: 	Step increased F by 7.209337e-09, reducing alpha to 1.293696e-04.
ElecMinimize: 	Step failed to reduce F after 3 attempts. Quitting step.
ElecMinimize: 	Undoing step.
	Linear fluid (dielectric constant: 78.4, screening length: 5.74355 Bohr) occupying 0.726600 of unit cell:	Completed after 0 iterations at t[s]:  18023.84
ElecMinimize: 	Step failed: resetting search direction.
	FillingsUpdate:  mu: -0.139029841  nElectrons: 449.000000  magneticMoment: [ Abs: 16.51757  Tot: -15.77183 ]
	SubspaceRotationAdjust: set factor to 0.397
ElecMinimize: Iter:  19  F: -1957.760140887126227  |grad|_K:  1.992e-08  alpha:  1.294e-04
	Linear fluid (dielectric constant: 78.4, screening length: 5.74355 Bohr) occupying 0.726601 of unit cell:	Completed after 1 iterations at t[s]:  18081.26
	Linear fluid (dielectric constant: 78.4, screening length: 5.74355 Bohr) occupying 0.726600 of unit cell:	Completed after 0 iterations at t[s]:  18106.87
ElecMinimize: 	Step increased F by 2.097522e-09, reducing alpha to 1.530858e-02.
	Linear fluid (dielectric constant: 78.4, screening length: 5.74355 Bohr) occupying 0.726600 of unit cell:	Completed after 0 iterations at t[s]:  18159.63
ElecMinimize: 	Step increased F by 6.540176e-09, reducing alpha to 1.530858e-03.
	Linear fluid (dielectric constant: 78.4, screening length: 5.74355 Bohr) occupying 0.726600 of unit cell:	Completed after 0 iterations at t[s]:  18212.65
ElecMinimize: 	Step increased F by 7.287554e-09, reducing alpha to 1.530858e-04.
ElecMinimize: 	Step failed to reduce F after 3 attempts. Quitting step.
ElecMinimize: 	Undoing step.
	Linear fluid (dielectric constant: 78.4, screening length: 5.74355 Bohr) occupying 0.726600 of unit cell:	Completed after 0 iterations at t[s]:  18266.07
ElecMinimize: 	Step failed along negative gradient direction.
ElecMinimize: Probably at roundoff error limit. (Stopping)
Setting wave functions to eigenvectors of Hamiltonian

# Ionic positions in lattice coordinates:
ion Ti   0.166666674541666   0.083333342083333   0.566282272579568 1
ion Ti   0.083333341208333   0.166666675416666   0.433717727420432 1
ion Ti   0.416666674541666   0.083333342083333   0.566282272579568 1
ion Ti   0.333333341208333   0.166666675416666   0.433717727420432 1
ion Ti   0.666666674541666   0.083333342083333   0.566282272579568 1
ion Ti   0.583333341208333   0.166666675416666   0.433717727420432 1
ion Ti   0.916666674541666   0.083333342083333   0.566282272579568 1
ion Ti   0.833333341208333   0.166666675416666   0.433717727420432 1
ion Ti   0.166666674541666   0.333333342083333   0.566282272579568 1
ion Ti   0.083333341208333   0.416666675416666   0.433717727420432 1
ion Ti   0.416666674541666   0.333333342083333   0.566282272579568 1
ion Ti   0.333333341208333   0.416666675416666   0.433717727420432 1
ion Ti   0.666666674541666   0.333333342083333   0.566282272579568 1
ion Ti   0.583333341208333   0.416666675416666   0.433717727420432 1
ion Ti   0.916666674541666   0.333333342083333   0.566282272579568 1
ion Ti   0.833333341208333   0.416666675416666   0.433717727420432 1
ion Ti   0.166666674541666   0.583333342083333   0.566282272579568 1
ion Ti   0.083333341208333   0.666666675416666   0.433717727420432 1
ion Ti   0.416666674541666   0.583333342083333   0.566282272579568 1
ion Ti   0.333333341208333   0.666666675416666   0.433717727420432 1
ion Ti   0.666666674541666   0.583333342083333   0.566282272579568 1
ion Ti   0.583333341208333   0.666666675416666   0.433717727420432 1
ion Ti   0.916666674541666   0.583333342083333   0.566282272579568 1
ion Ti   0.833333341208333   0.666666675416666   0.433717727420432 1
ion Ti   0.166666674541666   0.833333342083333   0.566282272579568 1
ion Ti   0.083333341208333   0.916666675416666   0.433717727420432 1
ion Ti   0.416666674541666   0.833333342083333   0.566282272579568 1
ion Ti   0.333333341208333   0.916666675416666   0.433717727420432 1
ion Ti   0.666666674541666   0.833333342083333   0.566282272579568 1
ion Ti   0.583333341208333   0.916666675416666   0.433717727420432 1
ion Ti   0.916666674541666   0.833333342083333   0.566282272579568 1
ion Ti   0.833333341208333   0.916666675416666   0.433717727420432 1
ion C   0.000000007874999   0.000000008750000   0.500000000000000 1
ion C   0.250000007874999   0.000000008750000   0.500000000000000 1
ion C   0.500000007875000   0.000000008750000   0.500000000000000 1
ion C   0.750000007875000   0.000000008750000   0.500000000000000 1
ion C   0.000000007874999   0.250000008750000   0.500000000000000 1
ion C   0.250000007874999   0.250000008750000   0.500000000000000 1
ion C   0.500000007875000   0.250000008750000   0.500000000000000 1
ion C   0.750000007875000   0.250000008750000   0.500000000000000 1
ion C   0.000000007874999   0.500000008750000   0.500000000000000 1
ion C   0.250000007874999   0.500000008750000   0.500000000000000 1
ion C   0.500000007875000   0.500000008750000   0.500000000000000 1
ion C   0.750000007875000   0.500000008750000   0.500000000000000 1
ion C   1.000000007875000   0.750000008750000   0.500000000000000 1
ion C   0.250000007874999   0.750000008750000   0.500000000000000 1
ion C   0.500000007875000   0.750000008750000   0.500000000000000 1
ion C   0.750000007875000   0.750000008750000   0.500000000000000 1


# Forces in Lattice coordinates:
force Ti   0.000000000000000   0.000000000000000  -0.005999430337852 1
force Ti  -0.000000000000000   0.000000000000000   0.005999430337852 1
force Ti   0.000000000000000  -0.000000000000000  -0.005999430337852 1
force Ti  -0.000000000000000   0.000000000000000   0.005999430337852 1
force Ti   0.000000000000000  -0.000000000000000  -0.005999430338079 1
force Ti  -0.000000000000000   0.000000000000000   0.005999430337852 1
force Ti   0.000000000000000  -0.000000000000000  -0.005999430337852 1
force Ti  -0.000000000000000   0.000000000000000   0.005999430337852 1
force Ti   0.000000000000000  -0.000000000000000  -0.005999430337852 1
force Ti   0.000000000000000   0.000000000000000   0.005999430337852 1
force Ti   0.000000000000000   0.000000000000000  -0.005999430337852 1
force Ti  -0.000000000000000   0.000000000000000   0.005999430338079 1
force Ti   0.000000000000000  -0.000000000000000  -0.005999430337624 1
force Ti  -0.000000000000000   0.000000000000000   0.005999430337852 1
force Ti   0.000000000000000  -0.000000000000000  -0.005999430337852 1
force Ti  -0.000000000000000   0.000000000000000   0.005999430338079 1
force Ti   0.000000000000000  -0.000000000000000  -0.005999430337852 1
force Ti  -0.000000000000000   0.000000000000000   0.005999430338079 1
force Ti  -0.000000000000000  -0.000000000000000  -0.005999430337852 1
force Ti  -0.000000000000000   0.000000000000000   0.005999430337852 1
force Ti  -0.000000000000000  -0.000000000000000  -0.005999430337852 1
force Ti  -0.000000000000000   0.000000000000000   0.005999430337852 1
force Ti   0.000000000000000  -0.000000000000000  -0.005999430337852 1
force Ti   0.000000000000000   0.000000000000000   0.005999430337852 1
force Ti   0.000000000000000  -0.000000000000000  -0.005999430338079 1
force Ti   0.000000000000000   0.000000000000000   0.005999430337852 1
force Ti   0.000000000000000  -0.000000000000000  -0.005999430338079 1
force Ti  -0.000000000000000   0.000000000000000   0.005999430338079 1
force Ti  -0.000000000000000  -0.000000000000000  -0.005999430337852 1
force Ti   0.000000000000000   0.000000000000000   0.005999430338079 1
force Ti   0.000000000000000  -0.000000000000000  -0.005999430338079 1
force Ti   0.000000000000000   0.000000000000000   0.005999430338079 1
force C   0.000000000000000  -0.000000000000000   0.000000000000000 1
force C  -0.000000000000000   0.000000000000000  -0.000000000000000 1
force C  -0.000000000000000  -0.000000000000000   0.000000000000000 1
force C   0.000000000000000  -0.000000000000000  -0.000000000000000 1
force C   0.000000000000000  -0.000000000000000  -0.000000000000000 1
force C  -0.000000000000000  -0.000000000000000  -0.000000000000000 1
force C   0.000000000000000   0.000000000000000  -0.000000000000000 1
force C  -0.000000000000000   0.000000000000000   0.000000000000000 1
force C  -0.000000000000000  -0.000000000000000   0.000000000000000 1
force C   0.000000000000000  -0.000000000000000   0.000000000000000 1
force C  -0.000000000000000   0.000000000000000  -0.000000000000000 1
force C   0.000000000000000  -0.000000000000000  -0.000000000000000 1
force C  -0.000000000000000   0.000000000000000  -0.000000000000000 1
force C   0.000000000000000  -0.000000000000000   0.000000000000000 1
force C  -0.000000000000000   0.000000000000000   0.000000000000000 1
force C   0.000000000000000   0.000000000000000  -0.000000000000000 1

# Energy components:
   A_diel =       -0.0876593869099579
   Eewald =    10424.1557373681989702
       EH =    12068.1760495031576284
     Eloc =   -24817.1660377718762902
      Enl =      187.3465002144785103
      Exc =     -317.8621442736123299
 Exc_core =       42.4426235497574211
       KE =      455.4233977996625526
  MuShift =       -0.0148929267271562
-------------------------------------
     Etot =    -1957.5864259238708200
       TS =        0.1737149558200771
-------------------------------------
        F =    -1957.7601408796908800

IonicMinimize: Iter:   2  F: -1957.760140879690880  |grad|_K:  8.662e-05  alpha:  1.000e+00  linmin:  1.000e+00  t[s]:  18315.37
IonicMinimize: Converged (|grad|_K<1.000000e-04).

#--- Lowdin population analysis ---
# oxidation-state Ti +0.820 +0.820 +0.820 +0.820 +0.820 +0.820 +0.820 +0.820 +0.820 +0.820 +0.820 +0.820 +0.820 +0.820 +0.820 +0.820 +0.820 +0.820 +0.820 +0.820 +0.820 +0.820 +0.820 +0.820 +0.820 +0.820 +0.820 +0.820 +0.820 +0.820 +0.820 +0.820
# magnetic-moments Ti -0.413 -0.413 -0.413 -0.413 -0.413 -0.413 -0.413 -0.413 -0.413 -0.413 -0.413 -0.413 -0.413 -0.413 -0.413 -0.413 -0.413 -0.413 -0.413 -0.413 -0.413 -0.413 -0.413 -0.413 -0.413 -0.413 -0.413 -0.413 -0.413 -0.413 -0.413 -0.413
# oxidation-state C -1.126 -1.126 -1.126 -1.126 -1.126 -1.126 -1.126 -1.126 -1.126 -1.126 -1.126 -1.126 -1.126 -1.126 -1.126 -1.126
# magnetic-moments C +0.013 +0.013 +0.013 +0.013 +0.013 +0.013 +0.013 +0.013 +0.013 +0.013 +0.013 +0.013 +0.013 +0.013 +0.013 +0.013


Dumping 'NbTe2.fillings' ... done
Dumping 'NbTe2.wfns' ... done
Dumping 'NbTe2.fluidState' ... done
Dumping 'NbTe2.ionpos' ... done
Dumping 'NbTe2.eigenvals' ... done
End date and time: Sun Jan 17 05:40:22 2021  (Duration: 0-5:05:25.26)
Done!
