
*************** JDFTx 1.5.0  ***************

Start date and time: Wed Jul  1 17:58:15 2020
Executable jdftx_gpu with command-line: -i Neutral.in -o Neutral.out
Running on hosts (process indices):  amax (0)
Divided in process groups (process indices):  0 (0)
gpuInit: Found compatible cuda device 0 'Tesla K80'
gpuInit: Selected device 0
Resource initialization completed at t[s]:      7.92
Run totals: 1 processes, 24 threads, 1 GPUs


Input parsed successfully to the following command list (including defaults):

basis kpoint-dependent
cache-projectors no
coords-type Lattice
core-overlap-check none
coulomb-interaction Slab 001
coulomb-truncation-embed 0 0 0.5
davidson-band-ratio 1.1
dump End State
dump-name NbTe2.$VAR
elec-cutoff 20 100
elec-eigen-algo Davidson
elec-ex-corr gga-PBE
elec-smearing Gauss 0.0073499
electronic-minimize  \
	dirUpdateScheme      FletcherReeves \
	linminMethod         DirUpdateRecommended \
	nIterations          100 \
	history              15 \
	knormThreshold       0 \
	energyDiffThreshold  1e-08 \
	nEnergyDiff          2 \
	alphaTstart          1 \
	alphaTmin            1e-10 \
	updateTestStepSize   yes \
	alphaTreduceFactor   0.1 \
	alphaTincreaseFactor 3 \
	nAlphaAdjustMax      3 \
	wolfeEnergy          0.0001 \
	wolfeGradient        0.9 \
	fdTest               no
electronic-scf  \
	nIterations	500 \
	energyDiffThreshold	1e-08 \
	residualThreshold	1e-07 \
	mixFraction	0.5 \
	qMetric	0.8 \
	history	10 \
	nEigSteps	2 \
	eigDiffThreshold	1e-08 \
	mixedVariable	Density \
	qKerker	0.8 \
	qKappa	-1 \
	verbose	no \
	mixFractionMag	1.5
exchange-regularization WignerSeitzTruncated
fluid LinearPCM 298.000000 1.013250
fluid-anion F- 1 MeanFieldLJ \
	epsBulk 1 \
	pMol 0 \
	epsInf 1 \
	Pvap 0 \
	sigmaBulk 0 \
	Rvdw 2.24877 \
	Res 0 \
	tauNuc 343133
fluid-cation Na+ 1 MeanFieldLJ \
	epsBulk 1 \
	pMol 0 \
	epsInf 1 \
	Pvap 0 \
	sigmaBulk 0 \
	Rvdw 2.19208 \
	Res 0 \
	tauNuc 343133
fluid-ex-corr lda-TF lda-PZ
fluid-gummel-loop 10 1.000000e-05
fluid-minimize  \
	dirUpdateScheme      PolakRibiere \
	linminMethod         DirUpdateRecommended \
	nIterations          400 \
	history              15 \
	knormThreshold       1e-11 \
	energyDiffThreshold  0 \
	nEnergyDiff          2 \
	alphaTstart          1 \
	alphaTmin            1e-10 \
	updateTestStepSize   yes \
	alphaTreduceFactor   0.1 \
	alphaTincreaseFactor 3 \
	nAlphaAdjustMax      6 \
	wolfeEnergy          0.0001 \
	wolfeGradient        0.9 \
	fdTest               no
fluid-solvent H2O 55.338 ScalarEOS \
	epsBulk 78.4 \
	pMol 0.92466 \
	epsInf 1.77 \
	Pvap 1.06736e-10 \
	sigmaBulk 4.62e-05 \
	Rvdw 2.61727 \
	Res 1.42 \
	tauNuc 343133 \
	poleEl 15 7 1
forces-output-coords Positions
initial-state NbTe2.$VAR
ion Te   0.187499996000000   0.216030133427136   0.421560741030176 0
ion Te   0.062500000000000   0.283969866572864   0.578439258969824 0
ion Te   0.062500000000000   0.461350241378000   0.391701692008597 0
ion Te   0.187499996000000   0.038649758622000   0.608298282991404 0
ion Te   0.437499996000000   0.216030133427136   0.421560741030176 0
ion Te   0.312499987000002   0.283969866572864   0.578439258969824 0
ion Te   0.312499987000002   0.461350241378000   0.391701692008597 0
ion Te   0.437499996000000   0.038649758622000   0.608298282991404 0
ion Te   0.687499977999998   0.216030133427136   0.421560741030176 0
ion Te   0.562500004000000   0.283969866572864   0.578439258969824 0
ion Te   0.562500004000000   0.461350241378000   0.391701692008597 0
ion Te   0.687499977999998   0.038649758622000   0.608298282991404 0
ion Te   0.937499996000000   0.216030133427136   0.421560741030176 0
ion Te   0.812499987000002   0.283969866572864   0.578439258969824 0
ion Te   0.812499987000002   0.461350241378000   0.391701692008597 0
ion Te   0.937499996000000   0.038649758622000   0.608298282991404 0
ion Te   0.187499996000000   0.716030189427134   0.421560741030176 0
ion Te   0.062500000000000   0.783969810572866   0.578439258969824 0
ion Te   0.062500000000000   0.961350279378003   0.391701692008597 0
ion Te   0.187499996000000   0.538649758622000   0.608298282991404 0
ion Te   0.437499996000000   0.716030189427134   0.421560741030176 0
ion Te   0.312499987000002   0.783969810572866   0.578439258969824 0
ion Te   0.312499987000002   0.961350279378003   0.391701692008597 0
ion Te   0.437499996000000   0.538649758622000   0.608298282991404 0
ion Te   0.687499977999998   0.716030189427134   0.421560741030176 0
ion Te   0.562500004000000   0.783969810572866   0.578439258969824 0
ion Te   0.562500004000000   0.961350279378003   0.391701692008597 0
ion Te   0.687499977999998   0.538649758622000   0.608298282991404 0
ion Te   0.937499996000000   0.716030189427134   0.421560741030176 0
ion Te   0.812499987000002   0.783969810572866   0.578439258969824 0
ion Te   0.812499987000002   0.961350279378003   0.391701692008597 0
ion Te   0.937499996000000   0.538649758622000   0.608298282991404 0
ion Mo   0.187499996000000   0.408950741031301   0.495433364708926 0
ion Mo   0.062500000000000   0.091039274968697   0.504566585291077 0
ion Mo   0.437499996000000   0.408950741031301   0.495433364708926 0
ion Mo   0.312499987000002   0.091039274968697   0.504566585291077 0
ion Mo   0.687499977999998   0.408950741031301   0.495433364708926 0
ion Mo   0.562500004000000   0.091039274968697   0.504566585291077 0
ion Mo   0.937499996000000   0.408950741031301   0.495433364708926 0
ion Mo   0.812499987000002   0.091039274968697   0.504566585291077 0
ion Mo   0.187499996000000   0.908950704031301   0.495433364708926 0
ion Mo   0.062500000000000   0.591039237968698   0.504566585291077 0
ion Mo   0.437499996000000   0.908950704031301   0.495433364708926 0
ion Mo   0.312499987000002   0.591039237968698   0.504566585291077 0
ion Mo   0.687499977999998   0.908950704031301   0.495433364708926 0
ion Mo   0.562500004000000   0.591039237968698   0.504566585291077 0
ion Mo   0.937499996000000   0.908950704031301   0.495433364708926 0
ion Mo   0.812499987000002   0.591039237968698   0.504566585291077 0
ion-species GBRV/$ID_pbe.uspp
ion-width Ecut
ionic-minimize  \
	dirUpdateScheme      L-BFGS \
	linminMethod         DirUpdateRecommended \
	nIterations          0 \
	history              15 \
	knormThreshold       0.0001 \
	energyDiffThreshold  1e-06 \
	nEnergyDiff          2 \
	alphaTstart          1 \
	alphaTmin            1e-10 \
	updateTestStepSize   yes \
	alphaTreduceFactor   0.1 \
	alphaTincreaseFactor 3 \
	nAlphaAdjustMax      3 \
	wolfeEnergy          0.0001 \
	wolfeGradient        0.9 \
	fdTest               no
kpoint   0.000000000000   0.000000000000   0.000000000000  1.00000000000000
kpoint-folding 2 3 1 
latt-move-scale 1 1 1
latt-scale 1 1 1 
lattice Triclinic 25.7315 24.009 36.186 90 90 90
lattice-minimize  \
	dirUpdateScheme      L-BFGS \
	linminMethod         DirUpdateRecommended \
	nIterations          0 \
	history              15 \
	knormThreshold       0 \
	energyDiffThreshold  1e-06 \
	nEnergyDiff          2 \
	alphaTstart          1 \
	alphaTmin            1e-10 \
	updateTestStepSize   yes \
	alphaTreduceFactor   0.1 \
	alphaTincreaseFactor 3 \
	nAlphaAdjustMax      3 \
	wolfeEnergy          0.0001 \
	wolfeGradient        0.9 \
	fdTest               no
lcao-params -1 1e-06 0.0073499
pcm-variant CANDLE
spintype no-spin
subspace-rotation-factor 1 yes
symmetries automatic
symmetry-threshold 0.0001



---------- Setting up symmetries ----------

Found 8 point-group symmetries of the bravais lattice
Found 32 space-group symmetries with basis
Applied RMS atom displacement 5.67661e-05 bohrs to make symmetries exact.

---------- Initializing the Grid ----------
R = 
[    25.7315          0          0  ]
[          0     24.009          0  ]
[          0          0     36.186  ]
unit cell volume = 22355.2
G =
[   0.244183          0          0  ]
[          0   0.261702          0  ]
[          0          0   0.173636  ]
Minimum fftbox size, Smin = [  116  112  164  ]
Chosen fftbox size, S = [  120  112  168  ]

---------- Initializing tighter grid for wavefunction operations ----------
R = 
[    25.7315          0          0  ]
[          0     24.009          0  ]
[          0          0     36.186  ]
unit cell volume = 22355.2
G =
[   0.244183          0          0  ]
[          0   0.261702          0  ]
[          0          0   0.173636  ]
Minimum fftbox size, Smin = [  104  100  148  ]
Chosen fftbox size, S = [  108  100  150  ]

---------- Exchange Correlation functional ----------
Initalized PBE GGA exchange.
Initalized PBE GGA correlation.

---------- Setting up pseudopotentials ----------
Width of ionic core gaussian charges (only for fluid interactions / plotting) set to 0.397384

Reading pseudopotential file '/home/guoxy/vasp/jdftx-1.5.0/build/pseudopotentials/GBRV/te_pbe.uspp':
  Title: Te.  Created by USPP 7.3.6 on 14-9-2013
  Reference state energy: -13.134220.  6 valence electrons in orbitals:
    |500>  occupation: 2  eigenvalue: -0.555231
    |510>  occupation: 4  eigenvalue: -0.218781
  lMax: 2  lLocal: 2  QijEcut: 5
  5 projectors sampled on a log grid with 723 points:
    l: 0  eig: -0.555229  rCut: 2.1
    l: 0  eig: 1.000000  rCut: 2.1
    l: 1  eig: -0.218780  rCut: 2.1
    l: 1  eig: 1.000000  rCut: 2.1
    l: 2  eig: 1.000000  rCut: 2.6
  Partial core density with radius 1.8
  Transforming core density to a uniform radial grid of dG=0.02 with 1273 points.
  Transforming local potential to a uniform radial grid of dG=0.02 with 1273 points.
  Transforming nonlocal projectors to a uniform radial grid of dG=0.02 with 432 points.
  Transforming density augmentations to a uniform radial grid of dG=0.02 with 1273 points.
  Transforming atomic orbitals to a uniform radial grid of dG=0.02 with 432 points.
  Core radius for overlap checks: 2.60 bohrs.

Reading pseudopotential file '/home/guoxy/vasp/jdftx-1.5.0/build/pseudopotentials/GBRV/mo_pbe.uspp':
  Title: Mo.  Created by USPP 7.3.6 on 14-9-2013
  Reference state energy: -69.261020.  14 valence electrons in orbitals:
    |400>  occupation: 2  eigenvalue: -2.465796
    |410>  occupation: 6  eigenvalue: -1.510132
    |420>  occupation: 4  eigenvalue: -0.207728
    |500>  occupation: 2  eigenvalue: -0.179278
    |510>  occupation: 0  eigenvalue: -0.052696
  lMax: 2  lLocal: 3  QijEcut: 5
  6 projectors sampled on a log grid with 629 points:
    l: 0  eig: -2.465797  rCut: 1.8
    l: 0  eig: -0.179280  rCut: 1.8
    l: 1  eig: -1.510132  rCut: 2
    l: 1  eig: 0.150000  rCut: 2
    l: 2  eig: -0.052696  rCut: 2.2
    l: 2  eig: 0.150000  rCut: 2.2
  Partial core density with radius 1.2
  Transforming core density to a uniform radial grid of dG=0.02 with 1273 points.
  Transforming local potential to a uniform radial grid of dG=0.02 with 1273 points.
  Transforming nonlocal projectors to a uniform radial grid of dG=0.02 with 432 points.
  Transforming density augmentations to a uniform radial grid of dG=0.02 with 1273 points.
  Transforming atomic orbitals to a uniform radial grid of dG=0.02 with 432 points.
  Core radius for overlap checks: 2.20 bohrs.

Initialized 2 species with 48 total atoms.

Folded 1 k-points by 2x3x1 to 6 k-points.

---------- Setting up k-points, bands, fillings ----------
Reduced to 4 k-points under symmetry. 
Computing the number of bands and number of electrons
Calculating initial fillings.
nElectrons: 416.000000   nBands: 336   nStates: 4

----- Setting up reduced wavefunction bases (one per k-point) -----
average nbasis = 95514.500 , ideal nbasis = 95503.046

---------- Setting up coulomb interaction ----------
Fluid mode embedding: using embedded box, but periodic Coulomb kernel.
(Fluid response is responsible for (approximate) separation between periodic images.)
Setting up double-sized grid for truncated Coulomb potentials:
R = 
[    25.7315          0          0  ]
[          0     24.009          0  ]
[          0          0     72.372  ]
unit cell volume = 44710.4
G =
[   0.244183          0          0  ]
[          0   0.261702          0  ]
[          0          0  0.0868179  ]
Chosen fftbox size, S = [  120  112  336  ]
Integer grid location selected as the embedding center:
   Grid: [  0  0  84  ]
   Lattice: [  0  0  0.5  ]
   Cartesian: [  0  0  18.093  ]
Constructing Wigner-Seitz cell: 6 faces (6 quadrilaterals, 0 hexagons)
Range-separation parameter for embedded mesh potentials due to point charges: 0.585498 bohrs.

Initializing van der Waals corrections
	NOTE: vdW corrections apply only for interactions with fluid.
	Te:  C6:  550.54 Eh-a0^6  R0: 3.575 a0
	Mo:  C6:  427.91 Eh-a0^6  R0: 3.097 a0

---------- Setting up ewald sum ----------
Optimum gaussian width for ewald sums = 7.427442 bohr.
Real space sum over 405 unit cells with max indices [  4  4  2  ]
Reciprocal space sum over 6435 terms with max indices [  7  6  16  ]

---------- Allocating electronic variables ----------
Initializing wave functions:  linear combination of atomic orbitals
Te pseudo-atom occupations:   s ( 2 )  p ( 4 )
Mo pseudo-atom occupations:   s ( 2 0 )  p ( 6 0 )  d ( 6 )
	FillingsUpdate:  mu: -0.694852092  nElectrons: 416.000000
LCAOMinimize: Iter:   0  F: -1330.1833782706376041  |grad|_K:  1.784e-02  alpha:  1.000e+00
	FillingsUpdate:  mu: -0.016511380  nElectrons: 416.000000
LCAOMinimize: Iter:   1  F: -1359.4656923333943723  |grad|_K:  2.180e-03  alpha:  2.027e-01  linmin:  3.573e-01  cgtest: -4.452e-01  t[s]:     98.60
	FillingsUpdate:  mu: -0.011854511  nElectrons: 416.000000
LCAOMinimize: Iter:   2  F: -1359.4684815388541210  |grad|_K:  2.326e-03  alpha:  3.707e-02  linmin: -1.145e-03  cgtest:  9.947e-01  t[s]:    131.04
LCAOMinimize: 	Predicted alpha/alphaT>3.000000, increasing alphaT to 1.111958e-01.
	FillingsUpdate:  mu: -0.088306830  nElectrons: 416.000000
LCAOMinimize: Iter:   3  F: -1359.6473117037355678  |grad|_K:  8.852e-04  alpha:  1.442e-01  linmin: -3.960e-02  cgtest:  9.967e-03  t[s]:    172.70
LCAOMinimize: 	Predicted alpha/alphaT>3.000000, increasing alphaT to 4.326549e-01.
	FillingsUpdate:  mu: -0.089994559  nElectrons: 416.000000
LCAOMinimize: Iter:   4  F: -1359.7302108640558345  |grad|_K:  3.829e-04  alpha:  4.546e-01  linmin:  1.765e-02  cgtest: -1.651e-01  t[s]:    213.90
	FillingsUpdate:  mu: -0.098873498  nElectrons: 416.000000
LCAOMinimize: Iter:   5  F: -1359.7391749734088080  |grad|_K:  2.142e-04  alpha:  2.810e-01  linmin:  4.748e-05  cgtest:  6.575e-02  t[s]:    246.53
	FillingsUpdate:  mu: -0.092663903  nElectrons: 416.000000
LCAOMinimize: Iter:   6  F: -1359.7410285605963054  |grad|_K:  6.361e-05  alpha:  1.769e-01  linmin: -8.988e-04  cgtest: -1.045e-02  t[s]:    278.55
	FillingsUpdate:  mu: -0.093265445  nElectrons: 416.000000
LCAOMinimize: Iter:   7  F: -1359.7413455493756373  |grad|_K:  4.135e-05  alpha:  3.446e-01  linmin:  1.017e-04  cgtest:  6.068e-04  t[s]:    310.83
	FillingsUpdate:  mu: -0.092009140  nElectrons: 416.000000
LCAOMinimize: Iter:   8  F: -1359.7414474162671922  |grad|_K:  2.380e-05  alpha:  2.620e-01  linmin:  2.839e-04  cgtest:  7.944e-04  t[s]:    343.50
	FillingsUpdate:  mu: -0.092592969  nElectrons: 416.000000
LCAOMinimize: Iter:   9  F: -1359.7414756178163771  |grad|_K:  6.392e-06  alpha:  2.194e-01  linmin: -1.458e-04  cgtest:  5.674e-03  t[s]:    377.01
	FillingsUpdate:  mu: -0.092455823  nElectrons: 416.000000
LCAOMinimize: Iter:  10  F: -1359.7414781390079952  |grad|_K:  4.146e-06  alpha:  2.717e-01  linmin:  2.999e-04  cgtest: -7.988e-04  t[s]:    409.39
	FillingsUpdate:  mu: -0.092554053  nElectrons: 416.000000
LCAOMinimize: Iter:  11  F: -1359.7414791368589704  |grad|_K:  2.192e-06  alpha:  2.557e-01  linmin: -3.159e-05  cgtest:  1.457e-03  t[s]:    442.08
	FillingsUpdate:  mu: -0.092485520  nElectrons: 416.000000
LCAOMinimize: Iter:  12  F: -1359.7414794383673780  |grad|_K:  6.772e-07  alpha:  2.762e-01  linmin:  8.426e-05  cgtest: -1.106e-03  t[s]:    474.44
LCAOMinimize: Converged (|Delta F|<1.000000e-06 for 2 iters).
----- createFluidSolver() ----- (Fluid-side solver setup)
   Initializing fluid molecule 'H2O'
     Initializing site 'O'
       Electron density: proportional to exp(-r/0.36935)*erfc((r-0.51523)/0.36823) with norm 6.826
       Charge density: gaussian nuclear width 0.478731 with net site charge 0.826
       Polarizability: cuspless exponential with width 0.32 and norm 3.73
       Hard sphere radius: 2.57003 bohrs
       Positions in reference frame:
         [ +0.000000 +0.000000 +0.000000 ]
     Initializing site 'H'
       Electron density: proportional to exp(-r/0.34641)*erfc((r-0)/0.390882) with norm 0.587
       Charge density: gaussian nuclear width 0.377945 with net site charge -0.413
       Polarizability: cuspless exponential with width 0.39 and norm 3.3
       Positions in reference frame:
         [ +0.000000 -1.441945 +1.122523 ]
         [ +0.000000 +1.441945 +1.122523 ]
     Net charge: 0   dipole magnitude: 0.927204
     Initializing spherical shell mfKernel with radius 2.61727 Bohr
     deltaS corrections:
       site 'O': -7.54299
       site 'H': -6.83917
   Initializing fluid molecule 'Na+'
     Initializing site 'Na'
       Electron density: proportional to exp(-r/0.19682)*erfc((r-0.71491)/0.41314) with norm 8.1383
       Charge density: gaussian nuclear width 0.365347 with net site charge -1
       Hard sphere radius: 1.86327 bohrs
       Positions in reference frame:
         [ +0.000000 +0.000000 +0.000000 ]
     Net charge: -1   dipole magnitude: 0
     Initializing gaussian mfKernel with width: 1.55004 Bohr
     deltaS corrections:
       site 'Na': -22.3555
   Initializing fluid molecule 'F-'
     Initializing site 'F'
       Electron density: proportional to exp(-r/0.38886)*erfc((r-0)/0.438782) with norm 8
       Charge density: gaussian nuclear width 0.374796 with net site charge 1
       Hard sphere radius: 2.39995 bohrs
       Positions in reference frame:
         [ +0.000000 +0.000000 +0.000000 ]
     Net charge: 1   dipole magnitude: 0
     Initializing gaussian mfKernel with width: 1.59012 Bohr
     deltaS corrections:
       site 'F': -9.04335

Correction to mu due to finite nuclear width = -0.00923176
   Cavity determined by nc: 0.00142 and sigma: 0.707107
   Nonlocal vdW cavity from gaussian model electron density with norm = 8 and sigma = 0.993594 bohr
   Charge asymmetry in cavity with sensitivity pCavity = 36.5 e-bohr/Eh
   Electrostatic cavity expanded by eta = 1.46 bohrs
   Weighted density cavitation model constrained by Nbulk: 0.0049383 bohr^-3, Pvap: 3.14029 kPa, Rvdw: 2.61727 bohr and sigmaBulk: 4.62e-05 Eh/bohr^2 at T: 298 K.
   Weighted density dispersion model using vdW pair potentials with single solvent site with sqrtC6eff: 0.77 SI.


---- Citations for features of the code used in this run ----

   Software package:
      R. Sundararaman, K. Letchworth-Weaver, K.A. Schwarz, D. Gunceler, Y. Ozhabes and T.A. Arias, 'JDFTx: software for joint density-functional theory', SoftwareX 6, 278 (2017)

   gga-PBE exchange-correlation functional:
      J.P. Perdew, K. Burke and M. Ernzerhof, Phys. Rev. Lett. 77, 3865 (1996)

   Pseudopotentials:
      KF Garrity, JW Bennett, KM Rabe and D Vanderbilt, Comput. Mater. Sci. 81, 446 (2014)

   Truncated Coulomb potentials:
      R. Sundararaman and T.A. Arias, Phys. Rev. B 87, 165122 (2013)

   Van der Waals correction pair-potentials:
      S. Grimme, J. Comput. Chem. 27, 1787 (2006)

   Charge-asymmetric nonlocally-determined local-electric (CANDLE) solvation model:
      R. Sundararaman and W.A. Goddard III, J. Chem. Phys. 142, 064107 (2015)

This list may not be complete. Please suggest additional citations or
report any other bugs at https://github.com/shankar1729/jdftx/issues

Initialization completed successfully at t[s]:    481.85

Fluid solver invoked on fresh (partially random / LCAO) wavefunctions
Running a vacuum solve first:

-------- Initial electronic minimization -----------
Will mix electronic density at each iteration.
	FillingsUpdate:  mu: -0.092485520  nElectrons: 416.000000
	FillingsUpdate:  mu: -0.101351078  nElectrons: 416.000000
SCF: Cycle:  0   F: -1360.539976735451773   dF: -7.985e-01   |Residual|: 4.114e-01   |deigs|: 6.346e-02  t[s]:    588.46
	FillingsUpdate:  mu: -0.102280230  nElectrons: 416.000000
SCF: Cycle:  1   F: -1360.653470579293298   dF: -1.135e-01   |Residual|: 1.643e-01   |deigs|: 1.120e-02  t[s]:    673.37
	FillingsUpdate:  mu: -0.092099116  nElectrons: 416.000000
SCF: Cycle:  2   F: -1360.946290189245701   dF: -2.928e-01   |Residual|: 1.475e-01   |deigs|: 1.068e-02  t[s]:    758.86
	FillingsUpdate:  mu: -0.091599477  nElectrons: 416.000000
SCF: Cycle:  3   F: -1361.003725316835926   dF: -5.744e-02   |Residual|: 3.533e-02   |deigs|: 4.390e-03  t[s]:    843.14
	FillingsUpdate:  mu: -0.086514825  nElectrons: 416.000000
SCF: Cycle:  4   F: -1361.010130951667634   dF: -6.406e-03   |Residual|: 1.496e-02   |deigs|: 4.856e-03  t[s]:    927.84
	FillingsUpdate:  mu: -0.083111794  nElectrons: 416.000000
SCF: Cycle:  5   F: -1361.012333786487488   dF: -2.203e-03   |Residual|: 1.384e-02   |deigs|: 2.986e-03  t[s]:   1013.52
	FillingsUpdate:  mu: -0.079881415  nElectrons: 416.000000
SCF: Cycle:  6   F: -1361.012989975175287   dF: -6.562e-04   |Residual|: 5.832e-03   |deigs|: 3.078e-03  t[s]:   1099.63
	FillingsUpdate:  mu: -0.076927711  nElectrons: 416.000000
SCF: Cycle:  7   F: -1361.013269464755695   dF: -2.795e-04   |Residual|: 3.980e-03   |deigs|: 2.745e-03  t[s]:   1184.70
	FillingsUpdate:  mu: -0.074097540  nElectrons: 416.000000
SCF: Cycle:  8   F: -1361.013368995289511   dF: -9.953e-05   |Residual|: 3.639e-03   |deigs|: 2.801e-03  t[s]:   1270.77
	FillingsUpdate:  mu: -0.072593227  nElectrons: 416.000000
SCF: Cycle:  9   F: -1361.013348704595955   dF: +2.029e-05   |Residual|: 2.170e-03   |deigs|: 1.866e-03  t[s]:   1357.11
	FillingsUpdate:  mu: -0.069794121  nElectrons: 416.000000
SCF: Cycle: 10   F: -1361.013386500453635   dF: -3.780e-05   |Residual|: 1.636e-03   |deigs|: 3.107e-03  t[s]:   1441.42
	FillingsUpdate:  mu: -0.068952478  nElectrons: 416.000000
SCF: Cycle: 11   F: -1361.013409253225063   dF: -2.275e-05   |Residual|: 1.148e-03   |deigs|: 1.148e-03  t[s]:   1526.58
	FillingsUpdate:  mu: -0.067572684  nElectrons: 416.000000
SCF: Cycle: 12   F: -1361.013421909861108   dF: -1.266e-05   |Residual|: 6.200e-04   |deigs|: 1.410e-03  t[s]:   1611.16
	FillingsUpdate:  mu: -0.067242491  nElectrons: 416.000000
SCF: Cycle: 13   F: -1361.013424274901809   dF: -2.365e-06   |Residual|: 2.589e-04   |deigs|: 6.816e-04  t[s]:   1695.70
	FillingsUpdate:  mu: -0.067284709  nElectrons: 416.000000
SCF: Cycle: 14   F: -1361.013424743674477   dF: -4.688e-07   |Residual|: 1.083e-04   |deigs|: 4.253e-04  t[s]:   1781.13
	FillingsUpdate:  mu: -0.067195927  nElectrons: 416.000000
SCF: Cycle: 15   F: -1361.013424841947653   dF: -9.827e-08   |Residual|: 6.190e-05   |deigs|: 1.434e-04  t[s]:   1866.03
	FillingsUpdate:  mu: -0.067206307  nElectrons: 416.000000
SCF: Cycle: 16   F: -1361.013424851262243   dF: -9.315e-09   |Residual|: 4.054e-05   |deigs|: 1.152e-04  t[s]:   1949.78
	FillingsUpdate:  mu: -0.067196138  nElectrons: 416.000000
SCF: Cycle: 17   F: -1361.013424866219566   dF: -1.496e-08   |Residual|: 1.124e-05   |deigs|: 6.265e-05  t[s]:   2032.64
	FillingsUpdate:  mu: -0.067192906  nElectrons: 416.000000
SCF: Cycle: 18   F: -1361.013424867291633   dF: -1.072e-09   |Residual|: 4.313e-06   |deigs|: 4.799e-05  t[s]:   2111.45
	FillingsUpdate:  mu: -0.067194225  nElectrons: 416.000000
SCF: Cycle: 19   F: -1361.013424867889626   dF: -5.980e-10   |Residual|: 2.054e-06   |deigs|: 9.610e-06  t[s]:   2179.16
SCF: Converged (|Delta E|<1.000000e-08 for 2 iters).

Vacuum energy after initial minimize, F = -1361.013424867889626

	FillingsUpdate:  mu: -0.067194225  nElectrons: 416.000000
	Linear fluid (dielectric constant: 78.4, screening length: 5.74355 Bohr) occupying 0.739376 of unit cell:	Completed after 18 iterations at t[s]:   2191.07

-------- Electronic minimization -----------
Will mix electronic density at each iteration.
	FillingsUpdate:  mu: -0.067194225  nElectrons: 416.000000
	Linear fluid (dielectric constant: 78.4, screening length: 5.74355 Bohr) occupying 0.739376 of unit cell:	Completed after 0 iterations at t[s]:   2200.89
	FillingsUpdate:  mu: -0.159281018  nElectrons: 416.000000
	Linear fluid (dielectric constant: 78.4, screening length: 5.74355 Bohr) occupying 0.740522 of unit cell:	Completed after 13 iterations at t[s]:   2300.74
SCF: Cycle:  0   F: -1361.007058927171556   dF: -1.672e-04   |Residual|: 8.010e-03   |deigs|: 1.381e-04  t[s]:   2302.41
	Linear fluid (dielectric constant: 78.4, screening length: 5.74355 Bohr) occupying 0.739261 of unit cell:	Completed after 12 iterations at t[s]:   2304.38
	FillingsUpdate:  mu: -0.158691585  nElectrons: 416.000000
	Linear fluid (dielectric constant: 78.4, screening length: 5.74355 Bohr) occupying 0.740467 of unit cell:	Completed after 12 iterations at t[s]:   2389.03
SCF: Cycle:  1   F: -1361.007486473293739   dF: -4.275e-04   |Residual|: 4.641e-03   |deigs|: 5.580e-04  t[s]:   2390.75
	Linear fluid (dielectric constant: 78.4, screening length: 5.74355 Bohr) occupying 0.739281 of unit cell:	Completed after 11 iterations at t[s]:   2392.51
	FillingsUpdate:  mu: -0.158470771  nElectrons: 416.000000
	Linear fluid (dielectric constant: 78.4, screening length: 5.74355 Bohr) occupying 0.740459 of unit cell:	Completed after 12 iterations at t[s]:   2478.14
SCF: Cycle:  2   F: -1361.007435880379944   dF: +5.059e-05   |Residual|: 3.613e-03   |deigs|: 3.014e-04  t[s]:   2479.87
	Linear fluid (dielectric constant: 78.4, screening length: 5.74355 Bohr) occupying 0.739315 of unit cell:	Completed after 10 iterations at t[s]:   2481.59
	FillingsUpdate:  mu: -0.158064438  nElectrons: 416.000000
	Linear fluid (dielectric constant: 78.4, screening length: 5.74355 Bohr) occupying 0.740428 of unit cell:	Completed after 10 iterations at t[s]:   2568.25
SCF: Cycle:  3   F: -1361.007565657269652   dF: -1.298e-04   |Residual|: 1.828e-03   |deigs|: 4.160e-04  t[s]:   2569.86
	Linear fluid (dielectric constant: 78.4, screening length: 5.74355 Bohr) occupying 0.739573 of unit cell:	Completed after 8 iterations at t[s]:   2571.40
	FillingsUpdate:  mu: -0.157517266  nElectrons: 416.000000
	Linear fluid (dielectric constant: 78.4, screening length: 5.74355 Bohr) occupying 0.740405 of unit cell:	Completed after 8 iterations at t[s]:   2656.85
SCF: Cycle:  4   F: -1361.007577361918948   dF: -1.170e-05   |Residual|: 9.941e-04   |deigs|: 5.818e-04  t[s]:   2658.52
	Linear fluid (dielectric constant: 78.4, screening length: 5.74355 Bohr) occupying 0.739969 of unit cell:	Completed after 7 iterations at t[s]:   2659.99
	FillingsUpdate:  mu: -0.157115222  nElectrons: 416.000000
	Linear fluid (dielectric constant: 78.4, screening length: 5.74355 Bohr) occupying 0.740390 of unit cell:	Completed after 7 iterations at t[s]:   2745.54
SCF: Cycle:  5   F: -1361.007587115241904   dF: -9.753e-06   |Residual|: 8.360e-04   |deigs|: 4.384e-04  t[s]:   2747.36
	Linear fluid (dielectric constant: 78.4, screening length: 5.74355 Bohr) occupying 0.740299 of unit cell:	Completed after 6 iterations at t[s]:   2748.78
	FillingsUpdate:  mu: -0.156991660  nElectrons: 416.000000
	Linear fluid (dielectric constant: 78.4, screening length: 5.74355 Bohr) occupying 0.740390 of unit cell:	Completed after 6 iterations at t[s]:   2833.23
SCF: Cycle:  6   F: -1361.007588104486103   dF: -9.892e-07   |Residual|: 5.326e-04   |deigs|: 1.650e-04  t[s]:   2834.86
	Linear fluid (dielectric constant: 78.4, screening length: 5.74355 Bohr) occupying 0.740468 of unit cell:	Completed after 6 iterations at t[s]:   2836.25
	FillingsUpdate:  mu: -0.156950836  nElectrons: 416.000000
	Linear fluid (dielectric constant: 78.4, screening length: 5.74355 Bohr) occupying 0.740390 of unit cell:	Completed after 7 iterations at t[s]:   2921.74
SCF: Cycle:  7   F: -1361.007584991544263   dF: +3.113e-06   |Residual|: 6.786e-04   |deigs|: 1.048e-04  t[s]:   2923.44
	Linear fluid (dielectric constant: 78.4, screening length: 5.74355 Bohr) occupying 0.740520 of unit cell:	Completed after 6 iterations at t[s]:   2924.79
	FillingsUpdate:  mu: -0.156891761  nElectrons: 416.000000
	Linear fluid (dielectric constant: 78.4, screening length: 5.74355 Bohr) occupying 0.740385 of unit cell:	Completed after 3 iterations at t[s]:   3008.89
SCF: Cycle:  8   F: -1361.007590456423713   dF: -5.465e-06   |Residual|: 2.602e-04   |deigs|: 1.042e-04  t[s]:   3010.72
	Linear fluid (dielectric constant: 78.4, screening length: 5.74355 Bohr) occupying 0.740510 of unit cell:	Completed after 2 iterations at t[s]:   3011.63
	FillingsUpdate:  mu: -0.156885352  nElectrons: 416.000000
	Linear fluid (dielectric constant: 78.4, screening length: 5.74355 Bohr) occupying 0.740382 of unit cell:	Completed after 1 iterations at t[s]:   3096.93
SCF: Cycle:  9   F: -1361.007590992200221   dF: -5.358e-07   |Residual|: 2.248e-04   |deigs|: 4.046e-04  t[s]:   3098.56
	Linear fluid (dielectric constant: 78.4, screening length: 5.74355 Bohr) occupying 0.740450 of unit cell:	Completed after 0 iterations at t[s]:   3099.26
	FillingsUpdate:  mu: -0.156864176  nElectrons: 416.000000
	Linear fluid (dielectric constant: 78.4, screening length: 5.74355 Bohr) occupying 0.740376 of unit cell:	Completed after 2 iterations at t[s]:   3184.68
SCF: Cycle: 10   F: -1361.007590417756319   dF: +5.744e-07   |Residual|: 3.809e-04   |deigs|: 3.928e-04  t[s]:   3186.60
	Linear fluid (dielectric constant: 78.4, screening length: 5.74355 Bohr) occupying 0.740395 of unit cell:	Completed after 2 iterations at t[s]:   3187.64
	FillingsUpdate:  mu: -0.156902551  nElectrons: 416.000000
	Linear fluid (dielectric constant: 78.4, screening length: 5.74355 Bohr) occupying 0.740378 of unit cell:	Completed after 2 iterations at t[s]:   3273.68
SCF: Cycle: 11   F: -1361.007590586148808   dF: -1.684e-07   |Residual|: 3.591e-04   |deigs|: 3.429e-04  t[s]:   3275.52
	Linear fluid (dielectric constant: 78.4, screening length: 5.74355 Bohr) occupying 0.740388 of unit cell:	Completed after 0 iterations at t[s]:   3276.21
	FillingsUpdate:  mu: -0.156918785  nElectrons: 416.000000
	Linear fluid (dielectric constant: 78.4, screening length: 5.74355 Bohr) occupying 0.740378 of unit cell:	Completed after 5 iterations at t[s]:   3361.26
SCF: Cycle: 12   F: -1361.007576212910180   dF: +1.437e-05   |Residual|: 1.378e-03   |deigs|: 1.166e-04  t[s]:   3362.95
	Linear fluid (dielectric constant: 78.4, screening length: 5.74355 Bohr) occupying 0.740367 of unit cell:	Completed after 3 iterations at t[s]:   3364.01
	FillingsUpdate:  mu: -0.156806736  nElectrons: 416.000000
	Linear fluid (dielectric constant: 78.4, screening length: 5.74355 Bohr) occupying 0.740361 of unit cell:	Completed after 3 iterations at t[s]:   3448.90
SCF: Cycle: 13   F: -1361.007590022196382   dF: -1.381e-05   |Residual|: 2.252e-04   |deigs|: 2.267e-04  t[s]:   3450.65
	Linear fluid (dielectric constant: 78.4, screening length: 5.74355 Bohr) occupying 0.740367 of unit cell:	Completed after 3 iterations at t[s]:   3451.70
	FillingsUpdate:  mu: -0.156898166  nElectrons: 416.000000
	Linear fluid (dielectric constant: 78.4, screening length: 5.74355 Bohr) occupying 0.740373 of unit cell:	Completed after 1 iterations at t[s]:   3536.57
SCF: Cycle: 14   F: -1361.007590952281589   dF: -9.301e-07   |Residual|: 1.754e-04   |deigs|: 1.105e-04  t[s]:   3538.23
	Linear fluid (dielectric constant: 78.4, screening length: 5.74355 Bohr) occupying 0.740368 of unit cell:	Completed after 2 iterations at t[s]:   3539.20
	FillingsUpdate:  mu: -0.156867135  nElectrons: 416.000000
	Linear fluid (dielectric constant: 78.4, screening length: 5.74355 Bohr) occupying 0.740369 of unit cell:	Completed after 2 iterations at t[s]:   3625.12
SCF: Cycle: 15   F: -1361.007590889462790   dF: +6.282e-08   |Residual|: 1.492e-04   |deigs|: 4.120e-05  t[s]:   3626.71
	Linear fluid (dielectric constant: 78.4, screening length: 5.74355 Bohr) occupying 0.740368 of unit cell:	Completed after 1 iterations at t[s]:   3627.55
	FillingsUpdate:  mu: -0.156911545  nElectrons: 416.000000
	Linear fluid (dielectric constant: 78.4, screening length: 5.74355 Bohr) occupying 0.740374 of unit cell:	Completed after 3 iterations at t[s]:   3712.25
SCF: Cycle: 16   F: -1361.007589645084181   dF: +1.244e-06   |Residual|: 3.824e-04   |deigs|: 1.348e-04  t[s]:   3714.20
	Linear fluid (dielectric constant: 78.4, screening length: 5.74355 Bohr) occupying 0.740370 of unit cell:	Completed after 2 iterations at t[s]:   3715.18
	FillingsUpdate:  mu: -0.156850886  nElectrons: 416.000000
	Linear fluid (dielectric constant: 78.4, screening length: 5.74355 Bohr) occupying 0.740366 of unit cell:	Completed after 2 iterations at t[s]:   3800.28
SCF: Cycle: 17   F: -1361.007590781896170   dF: -1.137e-06   |Residual|: 1.580e-04   |deigs|: 7.792e-05  t[s]:   3802.20
	Linear fluid (dielectric constant: 78.4, screening length: 5.74355 Bohr) occupying 0.740370 of unit cell:	Completed after 2 iterations at t[s]:   3803.24
	FillingsUpdate:  mu: -0.156902856  nElectrons: 416.000000
	Linear fluid (dielectric constant: 78.4, screening length: 5.74355 Bohr) occupying 0.740372 of unit cell:	Completed after 2 iterations at t[s]:   3887.95
SCF: Cycle: 18   F: -1361.007590922360805   dF: -1.405e-07   |Residual|: 1.670e-04   |deigs|: 5.774e-05  t[s]:   3889.53
	Linear fluid (dielectric constant: 78.4, screening length: 5.74355 Bohr) occupying 0.740370 of unit cell:	Completed after 1 iterations at t[s]:   3890.43
	FillingsUpdate:  mu: -0.156855416  nElectrons: 416.000000
	Linear fluid (dielectric constant: 78.4, screening length: 5.74355 Bohr) occupying 0.740366 of unit cell:	Completed after 2 iterations at t[s]:   3975.57
SCF: Cycle: 19   F: -1361.007588613426833   dF: +2.309e-06   |Residual|: 4.836e-04   |deigs|: 6.003e-05  t[s]:   3977.14
	Linear fluid (dielectric constant: 78.4, screening length: 5.74355 Bohr) occupying 0.740371 of unit cell:	Completed after 3 iterations at t[s]:   3978.21
	FillingsUpdate:  mu: -0.156907360  nElectrons: 416.000000
	Linear fluid (dielectric constant: 78.4, screening length: 5.74355 Bohr) occupying 0.740374 of unit cell:	Completed after 0 iterations at t[s]:   4063.43
SCF: Cycle: 20   F: -1361.007591210557621   dF: -2.597e-06   |Residual|: 7.971e-05   |deigs|: 5.078e-05  t[s]:   4065.34
	Linear fluid (dielectric constant: 78.4, screening length: 5.74355 Bohr) occupying 0.740370 of unit cell:	Completed after 0 iterations at t[s]:   4066.05
	FillingsUpdate:  mu: -0.156907465  nElectrons: 416.000000
	Linear fluid (dielectric constant: 78.4, screening length: 5.74355 Bohr) occupying 0.740374 of unit cell:	Completed after 0 iterations at t[s]:   4135.95
SCF: Cycle: 21   F: -1361.007591211247473   dF: -6.899e-10   |Residual|: 8.058e-05   |deigs|: 2.598e-05  t[s]:   4137.85
	Linear fluid (dielectric constant: 78.4, screening length: 5.74355 Bohr) occupying 0.740370 of unit cell:	Completed after 0 iterations at t[s]:   4138.53
	FillingsUpdate:  mu: -0.156907495  nElectrons: 416.000000
	Linear fluid (dielectric constant: 78.4, screening length: 5.74355 Bohr) occupying 0.740374 of unit cell:	Completed after 0 iterations at t[s]:   4216.02
SCF: Cycle: 22   F: -1361.007591211514182   dF: -2.667e-10   |Residual|: 8.030e-05   |deigs|: 3.069e-06  t[s]:   4217.83
SCF: Converged (|Delta E|<1.000000e-08 for 2 iters).

Single-point solvation energy estimate, DeltaF = +0.005833656375444

# Ionic positions in lattice coordinates:
ion Te   0.187499993000000   0.216028494427135   0.421560728530177 0
ion Te   0.062499993000000   0.283968171572865   0.578439246469825 0
ion Te   0.062499993000000   0.461348583878000   0.391701692008597 0
ion Te   0.187499993000000   0.038648082122000   0.608298282991404 0
ion Te   0.437499993000000   0.216028494427135   0.421560728530177 0
ion Te   0.312499993000000   0.283968171572865   0.578439246469825 0
ion Te   0.312499993000000   0.461348583878000   0.391701692008597 0
ion Te   0.437499993000000   0.038648082122000   0.608298282991404 0
ion Te   0.687499993000000   0.216028494427135   0.421560728530177 0
ion Te   0.562499993000000   0.283968171572865   0.578439246469825 0
ion Te   0.562499993000000   0.461348583878000   0.391701692008597 0
ion Te   0.687499993000000   0.038648082122000   0.608298282991404 0
ion Te   0.937499993000000   0.216028494427135   0.421560728530177 0
ion Te   0.812499993000000   0.283968171572865   0.578439246469825 0
ion Te   0.812499993000000   0.461348583878000   0.391701692008597 0
ion Te   0.937499993000000   0.038648082122000   0.608298282991404 0
ion Te   0.187499993000000   0.716028494427135   0.421560728530177 0
ion Te   0.062499993000000   0.783968171572865   0.578439246469825 0
ion Te   0.062499993000000   0.961348583878000   0.391701692008597 0
ion Te   0.187499993000000   0.538648082122000   0.608298282991404 0
ion Te   0.437499993000000   0.716028494427135   0.421560728530177 0
ion Te   0.312499993000000   0.783968171572865   0.578439246469825 0
ion Te   0.312499993000000   0.961348583878000   0.391701692008597 0
ion Te   0.437499993000000   0.538648082122000   0.608298282991404 0
ion Te   0.687499993000000   0.716028494427135   0.421560728530177 0
ion Te   0.562499993000000   0.783968171572865   0.578439246469825 0
ion Te   0.562499993000000   0.961348583878000   0.391701692008597 0
ion Te   0.687499993000000   0.538648082122000   0.608298282991404 0
ion Te   0.937499993000000   0.716028494427135   0.421560728530177 0
ion Te   0.812499993000000   0.783968171572865   0.578439246469825 0
ion Te   0.812499993000000   0.961348583878000   0.391701692008597 0
ion Te   0.937499993000000   0.538648082122000   0.608298282991404 0
ion Mo   0.187499993000000   0.408954066031302   0.495433377208926 0
ion Mo   0.062499993000000   0.091042599968698   0.504566597791076 0
ion Mo   0.437499993000000   0.408954066031302   0.495433377208926 0
ion Mo   0.312499993000000   0.091042599968698   0.504566597791076 0
ion Mo   0.687499993000000   0.408954066031302   0.495433377208926 0
ion Mo   0.562499993000000   0.091042599968698   0.504566597791076 0
ion Mo   0.937499993000000   0.408954066031302   0.495433377208926 0
ion Mo   0.812499993000000   0.091042599968698   0.504566597791076 0
ion Mo   0.187499993000000   0.908954066031302   0.495433377208926 0
ion Mo   0.062499993000000   0.591042599968698   0.504566597791076 0
ion Mo   0.437499993000000   0.908954066031302   0.495433377208926 0
ion Mo   0.312499993000000   0.591042599968698   0.504566597791076 0
ion Mo   0.687499993000000   0.908954066031302   0.495433377208926 0
ion Mo   0.562499993000000   0.591042599968698   0.504566597791076 0
ion Mo   0.937499993000000   0.908954066031302   0.495433377208926 0
ion Mo   0.812499993000000   0.591042599968698   0.504566597791076 0


# Forces in Lattice coordinates:
force Te   0.000000000000000  -0.014544565106677  -0.077635016621491 0
force Te  -0.000000000000000   0.014544565106677   0.077635016621604 0
force Te  -0.000000000000000   0.002137727734869  -0.175689386684056 0
force Te   0.000000000000000  -0.002137727734870   0.175689386684283 0
force Te  -0.000000000000000  -0.014544565106677  -0.077635016621491 0
force Te  -0.000000000000000   0.014544565106675   0.077635016621604 0
force Te   0.000000000000000   0.002137727734870  -0.175689386684056 0
force Te   0.000000000000000  -0.002137727734869   0.175689386684283 0
force Te   0.000000000000000  -0.014544565106677  -0.077635016621547 0
force Te   0.000000000000000   0.014544565106675   0.077635016621605 0
force Te   0.000000000000000   0.002137727734869  -0.175689386684056 0
force Te  -0.000000000000000  -0.002137727734870   0.175689386684283 0
force Te  -0.000000000000000  -0.014544565106675  -0.077635016621491 0
force Te   0.000000000000000   0.014544565106677   0.077635016621604 0
force Te   0.000000000000000   0.002137727734870  -0.175689386684056 0
force Te   0.000000000000000  -0.002137727734870   0.175689386684397 0
force Te   0.000000000000000  -0.014544565106675  -0.077635016621548 0
force Te  -0.000000000000000   0.014544565106674   0.077635016621605 0
force Te   0.000000000000000   0.002137727734869  -0.175689386683942 0
force Te   0.000000000000000  -0.002137727734871   0.175689386684397 0
force Te   0.000000000000000  -0.014544565106674  -0.077635016621491 0
force Te  -0.000000000000000   0.014544565106674   0.077635016621604 0
force Te  -0.000000000000000   0.002137727734870  -0.175689386684056 0
force Te   0.000000000000000  -0.002137727734870   0.175689386684283 0
force Te  -0.000000000000000  -0.014544565106675  -0.077635016621490 0
force Te  -0.000000000000000   0.014544565106674   0.077635016621604 0
force Te  -0.000000000000000   0.002137727734869  -0.175689386684056 0
force Te   0.000000000000000  -0.002137727734870   0.175689386684283 0
force Te  -0.000000000000000  -0.014544565106675  -0.077635016621548 0
force Te  -0.000000000000000   0.014544565106675   0.077635016621604 0
force Te   0.000000000000000   0.002137727734870  -0.175689386684056 0
force Te  -0.000000000000000  -0.002137727734870   0.175689386684283 0
force Mo   0.000000000000000   0.002825360859931   0.042276558185156 0
force Mo  -0.000000000000000  -0.002825360859917  -0.042276558185156 0
force Mo  -0.000000000000000   0.002825360859945   0.042276558185163 0
force Mo  -0.000000000000000  -0.002825360859917  -0.042276558185156 0
force Mo  -0.000000000000000   0.002825360859931   0.042276558185149 0
force Mo   0.000000000000000  -0.002825360859917  -0.042276558185149 0
force Mo   0.000000000000000   0.002825360859931   0.042276558185149 0
force Mo   0.000000000000000  -0.002825360859917  -0.042276558185163 0
force Mo  -0.000000000000000   0.002825360859945   0.042276558185156 0
force Mo  -0.000000000000000  -0.002825360859888  -0.042276558185156 0
force Mo   0.000000000000000   0.002825360859945   0.042276558185142 0
force Mo   0.000000000000000  -0.002825360859931  -0.042276558185156 0
force Mo   0.000000000000000   0.002825360859931   0.042276558185163 0
force Mo  -0.000000000000000  -0.002825360859917  -0.042276558185149 0
force Mo   0.000000000000000   0.002825360859917   0.042276558185171 0
force Mo   0.000000000000000  -0.002825360859902  -0.042276558185171 0

# Energy components:
   A_diel =        0.0050248038089874
   Eewald =     7259.4921152780643752
       EH =     8397.1341297537364881
     Eloc =   -17218.3102751483565953
      Enl =       99.6411216335186509
      Exc =     -386.4605925471283854
 Exc_core =      178.0851921848433790
       KE =      309.4475416893538977
-------------------------------------
     Etot =    -1360.9657423521603050
       TS =        0.0418488593538102
-------------------------------------
        F =    -1361.0075912115141819

IonicMinimize: Iter:   0  F: -1361.007591211514182  |grad|_K:  0.000e+00  t[s]:   4228.16
IonicMinimize: Converged (|grad|_K<1.000000e-04).

#--- Lowdin population analysis ---
# oxidation-state Te +0.498 +0.498 +0.588 +0.588 +0.498 +0.498 +0.588 +0.588 +0.498 +0.498 +0.588 +0.588 +0.498 +0.498 +0.588 +0.588 +0.498 +0.498 +0.588 +0.588 +0.498 +0.498 +0.588 +0.588 +0.498 +0.498 +0.588 +0.588 +0.498 +0.498 +0.588 +0.588
# oxidation-state Mo -0.973 -0.973 -0.973 -0.973 -0.973 -0.973 -0.973 -0.973 -0.973 -0.973 -0.973 -0.973 -0.973 -0.973 -0.973 -0.973


Dumping 'NbTe2.fillings' ... done
Dumping 'NbTe2.wfns' ... done
Dumping 'NbTe2.fluidState' ... done
Dumping 'NbTe2.eigenvals' ... done
End date and time: Wed Jul  1 19:08:58 2020  (Duration: 0-1:10:42.79)
Done!
