
*************** JDFTx 1.5.0  ***************

Start date and time: Wed Feb  3 07:19:43 2021
Executable jdftx_gpu with command-line: -i Charged.in -o Charged.out
Running on hosts (process indices):  amax (0-6)
Divided in process groups (process indices):  0 (0)  1 (1)  2 (2)  3 (3)  4 (4)  5 (5)  6 (6)
gpuInit: Found compatible cuda device 0 'Tesla K80'
gpuInit: Found compatible cuda device 1 'Tesla K80'
gpuInit: Found compatible cuda device 2 'Tesla K80'
gpuInit: Found compatible cuda device 3 'Tesla K80'
gpuInit: Found compatible cuda device 4 'Tesla K80'
gpuInit: Found compatible cuda device 5 'Tesla K80'
gpuInit: Found compatible cuda device 6 'Tesla K80'
gpuInit: Selected device 0
Resource initialization completed at t[s]:      3.14
Run totals: 7 processes, 24 threads, 7 GPUs


Input parsed successfully to the following command list (including defaults):

basis kpoint-dependent
cache-projectors no
coords-type Lattice
core-overlap-check none
coulomb-interaction Slab 001
coulomb-truncation-embed 0.5 0.5 0.5
davidson-band-ratio 1.1
dump End State
dump-name NbTe2.$VAR
elec-cutoff 20
elec-eigen-algo Davidson
elec-ex-corr gga-PBE
elec-initial-charge -0.500000
elec-initial-magnetization 10.000000 no
elec-smearing Gauss 0.0073499
electronic-minimize  \
	dirUpdateScheme      FletcherReeves \
	linminMethod         DirUpdateRecommended \
	nIterations          200 \
	history              15 \
	knormThreshold       0 \
	energyDiffThreshold  1e-08 \
	nEnergyDiff          2 \
	alphaTstart          1 \
	alphaTmin            1e-10 \
	updateTestStepSize   yes \
	alphaTreduceFactor   0.1 \
	alphaTincreaseFactor 3 \
	nAlphaAdjustMax      3 \
	wolfeEnergy          0.0001 \
	wolfeGradient        0.9 \
	fdTest               no
exchange-regularization WignerSeitzTruncated
fluid LinearPCM 298.000000 1.013250
fluid-anion F- 1 MeanFieldLJ \
	epsBulk 1 \
	pMol 0 \
	epsInf 1 \
	Pvap 0 \
	sigmaBulk 0 \
	Rvdw 2.24877 \
	Res 0 \
	tauNuc 343133
fluid-cation Na+ 1 MeanFieldLJ \
	epsBulk 1 \
	pMol 0 \
	epsInf 1 \
	Pvap 0 \
	sigmaBulk 0 \
	Rvdw 2.19208 \
	Res 0 \
	tauNuc 343133
fluid-ex-corr lda-TF lda-PZ
fluid-gummel-loop 10 1.000000e-05
fluid-minimize  \
	dirUpdateScheme      PolakRibiere \
	linminMethod         DirUpdateRecommended \
	nIterations          400 \
	history              15 \
	knormThreshold       1e-11 \
	energyDiffThreshold  0 \
	nEnergyDiff          2 \
	alphaTstart          1 \
	alphaTmin            1e-10 \
	updateTestStepSize   yes \
	alphaTreduceFactor   0.1 \
	alphaTincreaseFactor 3 \
	nAlphaAdjustMax      6 \
	wolfeEnergy          0.0001 \
	wolfeGradient        0.9 \
	fdTest               no
fluid-solvent H2O 55.338 ScalarEOS \
	epsBulk 78.4 \
	pMol 0.92466 \
	epsInf 1.77 \
	Pvap 1.06736e-10 \
	sigmaBulk 4.62e-05 \
	Rvdw 2.61727 \
	Res 1.42 \
	tauNuc 343133 \
	poleEl 15 7 1
forces-output-coords Positions
initial-state NbTe2.$VAR
ion Ru   0.166667780006944   0.083332224305556   0.499999991000000 1
ion Ru   0.416667780006944   0.083332224305556   0.499999991000000 1
ion Ru   0.666667780006944   0.083332224305556   0.499999991000000 1
ion Ru   0.916667780006944   0.083332224305556   0.499999991000000 1
ion Ru   0.166667780006944   0.333332224305556   0.499999991000000 1
ion Ru   0.416667780006944   0.333332224305556   0.499999991000000 1
ion Ru   0.666667780006944   0.333332224305556   0.499999991000000 1
ion Ru   0.916667780006944   0.333332224305556   0.499999991000000 1
ion Ru   0.166667780006944   0.583332224305556   0.499999991000000 1
ion Ru   0.416667780006944   0.583332224305556   0.499999991000000 1
ion Ru   0.666667780006944   0.583332224305556   0.499999991000000 1
ion Ru   0.916667780006944   0.583332224305556   0.499999991000000 1
ion Ru   0.166667780006944   0.833332224305556   0.499999991000000 1
ion Ru   0.416667780006944   0.833332224305556   0.499999991000000 1
ion Ru   0.666667780006944   0.833332224305556   0.499999991000000 1
ion Ru   0.916667780006944   0.833332224305556   0.499999991000000 1
ion Se   0.000001113340278  -0.000001109027778   0.583714461794762 1
ion Se   0.000001113340278  -0.000001109027778   0.416285520205238 1
ion Se   0.250001113340278  -0.000001109027778   0.583714461794762 1
ion Se   0.250001113340278  -0.000001109027778   0.416285520205238 1
ion Se   0.500001113340278  -0.000001109027778   0.583714461794762 1
ion Se   0.500001113340278  -0.000001109027778   0.416285520205238 1
ion Se   0.750001113340278  -0.000001109027778   0.583714461794762 1
ion Se   0.750001113340278  -0.000001109027778   0.416285520205238 1
ion Se   0.000001113340278   0.249998890972222   0.583714461794762 1
ion Se   0.000001113340278   0.249998890972222   0.416285520205238 1
ion Se   0.250001113340278   0.249998890972222   0.583714461794762 1
ion Se   0.250001113340278   0.249998890972222   0.416285520205238 1
ion Se   0.500001113340278   0.249998890972222   0.583714461794762 1
ion Se   0.500001113340278   0.249998890972222   0.416285520205238 1
ion Se   0.750001113340278   0.249998890972222   0.583714461794762 1
ion Se   0.750001113340278   0.249998890972222   0.416285520205238 1
ion Se   0.000001113340278   0.499998890972222   0.583714461794762 1
ion Se   0.000001113340278   0.499998890972222   0.416285520205238 1
ion Se   0.250001113340278   0.499998890972222   0.583714461794762 1
ion Se   0.250001113340278   0.499998890972222   0.416285520205238 1
ion Se   0.500001113340278   0.499998890972222   0.583714461794762 1
ion Se   0.500001113340278   0.499998890972222   0.416285520205238 1
ion Se   0.750001113340278   0.499998890972222   0.583714461794762 1
ion Se   0.750001113340278   0.499998890972222   0.416285520205238 1
ion Se   0.000001113340278   0.749998890972222   0.583714461794762 1
ion Se   0.000001113340278   0.749998890972222   0.416285520205238 1
ion Se   0.250001113340278   0.749998890972222   0.583714461794762 1
ion Se   0.250001113340278   0.749998890972222   0.416285520205238 1
ion Se   0.500001113340278   0.749998890972222   0.583714461794762 1
ion Se   0.500001113340278   0.749998890972222   0.416285520205238 1
ion Se   0.750001113340278   0.749998890972222   0.583714461794762 1
ion Se   0.750001113340278   0.749998890972222   0.416285520205238 1
ion-species GBRV/$ID_pbe.uspp
ion-width Ecut
ionic-minimize  \
	dirUpdateScheme      L-BFGS \
	linminMethod         DirUpdateRecommended \
	nIterations          500 \
	history              15 \
	knormThreshold       0.0001 \
	energyDiffThreshold  1e-06 \
	nEnergyDiff          2 \
	alphaTstart          1 \
	alphaTmin            1e-10 \
	updateTestStepSize   yes \
	alphaTreduceFactor   0.1 \
	alphaTincreaseFactor 3 \
	nAlphaAdjustMax      3 \
	wolfeEnergy          0.0001 \
	wolfeGradient        0.9 \
	fdTest               no
kpoint   0.000000000000   0.000000000000   0.000000000000  1.00000000000000
kpoint-folding 3 3 1 
latt-move-scale 1 1 1
latt-scale 1.88973 1.88973 1.88973 
lattice Triclinic 13.7858 13.7858 18.1305 90 90 120
lattice-minimize  \
	dirUpdateScheme      L-BFGS \
	linminMethod         DirUpdateRecommended \
	nIterations          0 \
	history              15 \
	knormThreshold       0 \
	energyDiffThreshold  1e-06 \
	nEnergyDiff          2 \
	alphaTstart          1 \
	alphaTmin            1e-10 \
	updateTestStepSize   yes \
	alphaTreduceFactor   0.1 \
	alphaTincreaseFactor 3 \
	nAlphaAdjustMax      3 \
	wolfeEnergy          0.0001 \
	wolfeGradient        0.9 \
	fdTest               no
lcao-params -1 1e-06 0.0073499
pcm-variant CANDLE
spintype z-spin
subspace-rotation-factor 1 yes
symmetries automatic
symmetry-threshold 0.0001



---------- Setting up symmetries ----------

Found 24 point-group symmetries of the bravais lattice
Found 192 space-group symmetries with basis
Applied RMS atom displacement 1.38477e-14 bohrs to make symmetries exact.

---------- Initializing the Grid ----------
R = 
[    26.0514   -13.0257          0  ]
[          0    22.5612          0  ]
[          0          0    34.2617  ]
unit cell volume = 20137.3
G =
[   0.241184   0.139248         -0  ]
[          0   0.278496          0  ]
[          0         -0   0.183388  ]
Minimum fftbox size, Smin = [  108  108  140  ]
Chosen fftbox size, S = [  108  108  140  ]

---------- Exchange Correlation functional ----------
Initalized PBE GGA exchange.
Initalized PBE GGA correlation.

---------- Setting up pseudopotentials ----------
Width of ionic core gaussian charges (only for fluid interactions / plotting) set to 0.397384

Reading pseudopotential file '/home/guoxy/vasp/jdftx-1.5.0/build/pseudopotentials/GBRV/ru_pbe.uspp':
  Title: Ru.  Created by USPP 7.3.6 on 3-2-2014
  Reference state energy: -96.418175.  16 valence electrons in orbitals:
    |400>  occupation: 2  eigenvalue: -3.217242
    |410>  occupation: 6  eigenvalue: -2.111371
    |420>  occupation: 6  eigenvalue: -0.566023
    |500>  occupation: 1  eigenvalue: -0.432692
    |510>  occupation: 0  eigenvalue: -0.257307
  lMax: 2  lLocal: 3  QijEcut: 6
  6 projectors sampled on a log grid with 713 points:
    l: 0  eig: -0.432698  rCut: 1.5
    l: 0  eig: -3.217241  rCut: 1.5
    l: 1  eig: -2.111368  rCut: 1.6
    l: 1  eig: -0.257311  rCut: 1.6
    l: 2  eig: -0.566022  rCut: 1.75
    l: 2  eig: 0.000000  rCut: 1.75
  Partial core density with radius 1.1
  Transforming core density to a uniform radial grid of dG=0.02 with 1457 points.
  Transforming local potential to a uniform radial grid of dG=0.02 with 1457 points.
  Transforming nonlocal projectors to a uniform radial grid of dG=0.02 with 432 points.
  Transforming density augmentations to a uniform radial grid of dG=0.02 with 1457 points.
  Transforming atomic orbitals to a uniform radial grid of dG=0.02 with 432 points.
  Core radius for overlap checks: 1.75 bohrs.

Reading pseudopotential file '/home/guoxy/vasp/jdftx-1.5.0/build/pseudopotentials/GBRV/se_pbe.uspp':
  Title: Se.  Created by USPP 7.3.6 on 14-9-2013
  Reference state energy: -21.672887.  6 valence electrons in orbitals:
    |400>  occupation: 2  eigenvalue: -0.635284
    |410>  occupation: 4  eigenvalue: -0.239295
  lMax: 2  lLocal: 3  QijEcut: 5
  6 projectors sampled on a log grid with 625 points:
    l: 0  eig: -0.635278  rCut: 1.5
    l: 0  eig: 0.500000  rCut: 1.5
    l: 1  eig: -0.239295  rCut: 1.5
    l: 1  eig: 0.500000  rCut: 1.5
    l: 2  eig: 0.000000  rCut: 1.8
    l: 2  eig: 1.000000  rCut: 1.8
  Partial core density with radius 1.2
  Transforming core density to a uniform radial grid of dG=0.02 with 1457 points.
  Transforming local potential to a uniform radial grid of dG=0.02 with 1457 points.
  Transforming nonlocal projectors to a uniform radial grid of dG=0.02 with 432 points.
  Transforming density augmentations to a uniform radial grid of dG=0.02 with 1457 points.
  Transforming atomic orbitals to a uniform radial grid of dG=0.02 with 432 points.
  Core radius for overlap checks: 1.80 bohrs.

Initialized 2 species with 48 total atoms.

Folded 1 k-points by 3x3x1 to 9 k-points.

---------- Setting up k-points, bands, fillings ----------
Adding inversion symmetry to k-mesh for non-inversion-symmetric unit cell.
Reduced to 3 k-points under symmetry. 
Computing the number of bands and number of electrons
Calculating initial fillings.
nElectrons: 447.500000   nBands: 336   nStates: 6

----- Setting up reduced wavefunction bases (one per k-point) -----
average nbasis = 86045.667 , ideal nbasis = 86028.008

---------- Setting up coulomb interaction ----------
Fluid mode embedding: using embedded box, but periodic Coulomb kernel.
(Fluid response is responsible for (approximate) separation between periodic images.)
Setting up double-sized grid for truncated Coulomb potentials:
R = 
[    26.0514   -13.0257          0  ]
[          0    22.5612          0  ]
[          0          0    68.5234  ]
unit cell volume = 40274.6
G =
[   0.241184   0.139248         -0  ]
[          0   0.278496          0  ]
[          0         -0  0.0916941  ]
Chosen fftbox size, S = [  108  108  280  ]
Integer grid location selected as the embedding center:
   Grid: [  54  54  70  ]
   Lattice: [  0.5  0.5  0.5  ]
   Cartesian: [  6.51285  11.2806  17.1308  ]
Constructing Wigner-Seitz cell: 8 faces (6 quadrilaterals, 2 hexagons)
Range-separation parameter for embedded mesh potentials due to point charges: 0.624095 bohrs.

Initializing van der Waals corrections
	NOTE: vdW corrections apply only for interactions with fluid.
	Ru:  C6:  427.91 Eh-a0^6  R0: 3.097 a0
	Se:  C6:  219.24 Eh-a0^6  R0: 3.347 a0

---------- Setting up ewald sum ----------
Optimum gaussian width for ewald sums = 7.173209 bohr.
Real space sum over 605 unit cells with max indices [  5  5  2  ]
Reciprocal space sum over 7425 terms with max indices [  7  7  16  ]

---------- Allocating electronic variables ----------
Initializing wave functions:  linear combination of atomic orbitals
Ru pseudo-atom occupations:   s ( 2 0 )  p ( 6 0 )  d ( 8 )
Se pseudo-atom occupations:   s ( 2 )  p ( 4 )
	FillingsUpdate:  mu: +2.226657169  nElectrons: 447.500000  magneticMoment: [ Abs: 0.97006  Tot: +0.96873 ]
LCAOMinimize: Iter:   0  F: -1662.6052212047832199  |grad|_K:  1.971e-02  alpha:  1.000e+00
	FillingsUpdate:  mu: -0.623669466  nElectrons: 447.500000  magneticMoment: [ Abs: 8.47318  Tot: +8.47311 ]
LCAOMinimize: Iter:   1  F: -1788.6653896634502416  |grad|_K:  1.527e-02  alpha:  4.474e-01  linmin:  1.766e-01  cgtest: -5.708e-01  t[s]:    132.71
LCAOMinimize: 	Bad step direction: g.d > 0.
LCAOMinimize: 	Undoing step.
LCAOMinimize: 	Step failed: resetting search direction.
	FillingsUpdate:  mu: -0.623669466  nElectrons: 447.500000  magneticMoment: [ Abs: 8.47318  Tot: +8.47311 ]
LCAOMinimize: Iter:   2  F: -1788.6653896634502416  |grad|_K:  1.527e-02  alpha:  0.000e+00
	FillingsUpdate:  mu: -0.360933805  nElectrons: 447.500000  magneticMoment: [ Abs: 7.46774  Tot: +7.46763 ]
LCAOMinimize: Iter:   3  F: -1821.3809263449754781  |grad|_K:  7.825e-03  alpha:  1.931e-01  linmin: -3.083e-01  cgtest:  5.456e-01  t[s]:    200.60
LCAOMinimize: Encountered beta<0, resetting CG.
	FillingsUpdate:  mu: -0.151709339  nElectrons: 447.500000  magneticMoment: [ Abs: 4.97519  Tot: +4.97519 ]
LCAOMinimize: Iter:   4  F: -1824.6711820001601154  |grad|_K:  1.146e-03  alpha:  1.509e-01  linmin:  1.311e-01  cgtest: -2.174e-01  t[s]:    241.35
LCAOMinimize: 	Predicted alpha/alphaT>3.000000, increasing alphaT to 4.525816e-01.
	FillingsUpdate:  mu: -0.125908978  nElectrons: 447.500000  magneticMoment: [ Abs: 3.84995  Tot: +3.84821 ]
LCAOMinimize: Iter:   5  F: -1824.9358014814149556  |grad|_K:  4.533e-04  alpha:  6.701e-01  linmin:  1.916e-02  cgtest:  3.877e-01  t[s]:    294.90
	FillingsUpdate:  mu: -0.145810316  nElectrons: 447.500000  magneticMoment: [ Abs: 3.76059  Tot: +3.75880 ]
LCAOMinimize: Iter:   6  F: -1824.9457472435294676  |grad|_K:  9.364e-05  alpha:  1.442e-01  linmin:  1.342e-02  cgtest: -6.929e-02  t[s]:    335.07
LCAOMinimize: 	Predicted alpha/alphaT>3.000000, increasing alphaT to 4.325913e-01.
	FillingsUpdate:  mu: -0.146128427  nElectrons: 447.500000  magneticMoment: [ Abs: 2.92960  Tot: +2.92520 ]
LCAOMinimize: Iter:   7  F: -1824.9479762200062396  |grad|_K:  4.230e-05  alpha:  7.518e-01  linmin: -7.568e-03  cgtest:  1.512e-01  t[s]:    388.41
	FillingsUpdate:  mu: -0.142528285  nElectrons: 447.500000  magneticMoment: [ Abs: 2.31390  Tot: +2.30805 ]
LCAOMinimize: Iter:   8  F: -1824.9483677284435998  |grad|_K:  7.041e-05  alpha:  6.358e-01  linmin: -9.943e-04  cgtest: -1.674e-02  t[s]:    428.74
	FillingsUpdate:  mu: -0.144913298  nElectrons: 447.500000  magneticMoment: [ Abs: 0.57618  Tot: +0.55553 ]
LCAOMinimize: Iter:   9  F: -1824.9492719279910489  |grad|_K:  2.429e-05  alpha:  5.274e-01  linmin:  8.985e-03  cgtest: -1.349e-01  t[s]:    469.07
	FillingsUpdate:  mu: -0.145150379  nElectrons: 447.500000  magneticMoment: [ Abs: 0.06382  Tot: -0.06230 ]
LCAOMinimize: Iter:  10  F: -1824.9494487336585280  |grad|_K:  4.590e-06  alpha:  8.986e-01  linmin: -4.005e-04  cgtest:  2.245e-01  t[s]:    509.38
LCAOMinimize: Encountered beta<0, resetting CG.
	FillingsUpdate:  mu: -0.145054881  nElectrons: 447.500000  magneticMoment: [ Abs: 0.03353  Tot: -0.03334 ]
LCAOMinimize: Iter:  11  F: -1824.9494567071244546  |grad|_K:  9.667e-07  alpha:  1.110e+00  linmin: -2.702e-03  cgtest:  9.250e-03  t[s]:    549.80
	FillingsUpdate:  mu: -0.145119123  nElectrons: 447.500000  magneticMoment: [ Abs: 0.02971  Tot: -0.02953 ]
LCAOMinimize: Iter:  12  F: -1824.9494568197833360  |grad|_K:  9.901e-07  alpha:  3.529e-01  linmin: -3.945e-05  cgtest: -1.638e-03  t[s]:    589.80
	FillingsUpdate:  mu: -0.145098983  nElectrons: 447.500000  magneticMoment: [ Abs: 0.02190  Tot: -0.02151 ]
LCAOMinimize: Iter:  13  F: -1824.9494569563571531  |grad|_K:  2.987e-07  alpha:  4.090e-01  linmin: -1.786e-04  cgtest:  8.571e-03  t[s]:    630.15
LCAOMinimize: Converged (|Delta F|<1.000000e-06 for 2 iters).
----- createFluidSolver() ----- (Fluid-side solver setup)
   Initializing fluid molecule 'H2O'
     Initializing site 'O'
       Electron density: proportional to exp(-r/0.36935)*erfc((r-0.51523)/0.36823) with norm 6.826
       Charge density: gaussian nuclear width 0.478731 with net site charge 0.826
       Polarizability: cuspless exponential with width 0.32 and norm 3.73
       Hard sphere radius: 2.57003 bohrs
       Positions in reference frame:
         [ +0.000000 +0.000000 +0.000000 ]
     Initializing site 'H'
       Electron density: proportional to exp(-r/0.34641)*erfc((r-0)/0.390882) with norm 0.587
       Charge density: gaussian nuclear width 0.377945 with net site charge -0.413
       Polarizability: cuspless exponential with width 0.39 and norm 3.3
       Positions in reference frame:
         [ +0.000000 -1.441945 +1.122523 ]
         [ +0.000000 +1.441945 +1.122523 ]
     Net charge: 0   dipole magnitude: 0.927204
     Initializing spherical shell mfKernel with radius 2.61727 Bohr
     deltaS corrections:
       site 'O': -7.54299
       site 'H': -6.83917
   Initializing fluid molecule 'Na+'
     Initializing site 'Na'
       Electron density: proportional to exp(-r/0.19682)*erfc((r-0.71491)/0.41314) with norm 8.1383
       Charge density: gaussian nuclear width 0.365347 with net site charge -1
       Hard sphere radius: 1.86327 bohrs
       Positions in reference frame:
         [ +0.000000 +0.000000 +0.000000 ]
     Net charge: -1   dipole magnitude: 0
     Initializing gaussian mfKernel with width: 1.55004 Bohr
     deltaS corrections:
       site 'Na': -22.3555
   Initializing fluid molecule 'F-'
     Initializing site 'F'
       Electron density: proportional to exp(-r/0.38886)*erfc((r-0)/0.438782) with norm 8
       Charge density: gaussian nuclear width 0.374796 with net site charge 1
       Hard sphere radius: 2.39995 bohrs
       Positions in reference frame:
         [ +0.000000 +0.000000 +0.000000 ]
     Net charge: 1   dipole magnitude: 0
     Initializing gaussian mfKernel with width: 1.59012 Bohr
     deltaS corrections:
       site 'F': -9.04335

Correction to mu due to finite nuclear width = -0.0110369
   Cavity determined by nc: 0.00142 and sigma: 0.707107
   Nonlocal vdW cavity from gaussian model electron density with norm = 8 and sigma = 0.993594 bohr
   Charge asymmetry in cavity with sensitivity pCavity = 36.5 e-bohr/Eh
   Electrostatic cavity expanded by eta = 1.46 bohrs
   Weighted density cavitation model constrained by Nbulk: 0.0049383 bohr^-3, Pvap: 3.14029 kPa, Rvdw: 2.61727 bohr and sigmaBulk: 4.62e-05 Eh/bohr^2 at T: 298 K.
   Weighted density dispersion model using vdW pair potentials with single solvent site with sqrtC6eff: 0.77 SI.


---- Citations for features of the code used in this run ----

   Software package:
      R. Sundararaman, K. Letchworth-Weaver, K.A. Schwarz, D. Gunceler, Y. Ozhabes and T.A. Arias, 'JDFTx: software for joint density-functional theory', SoftwareX 6, 278 (2017)

   gga-PBE exchange-correlation functional:
      J.P. Perdew, K. Burke and M. Ernzerhof, Phys. Rev. Lett. 77, 3865 (1996)

   Pseudopotentials:
      KF Garrity, JW Bennett, KM Rabe and D Vanderbilt, Comput. Mater. Sci. 81, 446 (2014)

   Truncated Coulomb potentials:
      R. Sundararaman and T.A. Arias, Phys. Rev. B 87, 165122 (2013)

   Van der Waals correction pair-potentials:
      S. Grimme, J. Comput. Chem. 27, 1787 (2006)

   Charge-asymmetric nonlocally-determined local-electric (CANDLE) solvation model:
      R. Sundararaman and W.A. Goddard III, J. Chem. Phys. 142, 064107 (2015)

   Total energy minimization with Auxiliary Hamiltonian:
      C. Freysoldt, S. Boeck, and J. Neugebauer, Phys. Rev. B 79, 241103(R) (2009)

This list may not be complete. Please suggest additional citations or
report any other bugs at https://github.com/shankar1729/jdftx/issues

Initialization completed successfully at t[s]:    636.51

Fluid solver invoked on fresh (partially random / LCAO) wavefunctions
Running a vacuum solve first:

-------- Initial electronic minimization -----------
	FillingsUpdate:  mu: -0.145098983  nElectrons: 447.500000  magneticMoment: [ Abs: 0.02190  Tot: -0.02151 ]
ElecMinimize: Iter:   0  F: -1824.949456956381255  |grad|_K:  1.044e-04  alpha:  1.000e+00
	FillingsUpdate:  mu: -0.135031648  nElectrons: 447.500000  magneticMoment: [ Abs: 0.01830  Tot: -0.01798 ]
	SubspaceRotationAdjust: set factor to 1
ElecMinimize: Iter:   1  F: -1826.186455541901296  |grad|_K:  7.542e-05  alpha:  6.505e-01  linmin:  2.432e-06  t[s]:    725.41
	FillingsUpdate:  mu: -0.056362486  nElectrons: 447.500000  magneticMoment: [ Abs: 0.01539  Tot: -0.01506 ]
	SubspaceRotationAdjust: set factor to 0.684
ElecMinimize: Iter:   2  F: -1826.453341193541064  |grad|_K:  5.500e-05  alpha:  2.690e-01  linmin: -4.906e-06  t[s]:    779.97
	FillingsUpdate:  mu: -0.108261036  nElectrons: 447.500000  magneticMoment: [ Abs: 0.01321  Tot: -0.01293 ]
	SubspaceRotationAdjust: set factor to 0.479
ElecMinimize: Iter:   3  F: -1826.648041791263267  |grad|_K:  2.506e-05  alpha:  3.684e-01  linmin: -1.637e-05  t[s]:    835.07
	FillingsUpdate:  mu: -0.116299756  nElectrons: 447.500000  magneticMoment: [ Abs: 0.01058  Tot: -0.01036 ]
	SubspaceRotationAdjust: set factor to 0.63
ElecMinimize: Iter:   4  F: -1826.717310493872219  |grad|_K:  1.526e-05  alpha:  6.326e-01  linmin:  6.047e-05  t[s]:    889.81
	FillingsUpdate:  mu: -0.102168141  nElectrons: 447.500000  magneticMoment: [ Abs: 0.00909  Tot: -0.00891 ]
	SubspaceRotationAdjust: set factor to 0.514
ElecMinimize: Iter:   5  F: -1826.735597233152475  |grad|_K:  1.094e-05  alpha:  4.576e-01  linmin: -9.466e-07  t[s]:    944.37
	FillingsUpdate:  mu: -0.112687640  nElectrons: 447.500000  magneticMoment: [ Abs: 0.00754  Tot: -0.00741 ]
	SubspaceRotationAdjust: set factor to 0.401
ElecMinimize: Iter:   6  F: -1826.746292788566279  |grad|_K:  6.483e-06  alpha:  5.153e-01  linmin:  3.115e-05  t[s]:    998.90
	FillingsUpdate:  mu: -0.108180587  nElectrons: 447.500000  magneticMoment: [ Abs: 0.00630  Tot: -0.00618 ]
	SubspaceRotationAdjust: set factor to 0.404
ElecMinimize: Iter:   7  F: -1826.750228468165460  |grad|_K:  4.181e-06  alpha:  5.462e-01  linmin:  2.971e-06  t[s]:   1053.50
	FillingsUpdate:  mu: -0.109158827  nElectrons: 447.500000  magneticMoment: [ Abs: 0.00534  Tot: -0.00525 ]
	SubspaceRotationAdjust: set factor to 0.456
ElecMinimize: Iter:   8  F: -1826.751962908839687  |grad|_K:  2.470e-06  alpha:  5.723e-01  linmin:  2.895e-06  t[s]:   1108.25
	FillingsUpdate:  mu: -0.110678185  nElectrons: 447.500000  magneticMoment: [ Abs: 0.00457  Tot: -0.00450 ]
	SubspaceRotationAdjust: set factor to 0.483
ElecMinimize: Iter:   9  F: -1826.752627462303280  |grad|_K:  1.777e-06  alpha:  6.283e-01  linmin:  2.303e-06  t[s]:   1162.94
	FillingsUpdate:  mu: -0.109962775  nElectrons: 447.500000  magneticMoment: [ Abs: 0.00384  Tot: -0.00379 ]
	SubspaceRotationAdjust: set factor to 0.48
ElecMinimize: Iter:  10  F: -1826.752946201856730  |grad|_K:  1.212e-06  alpha:  5.817e-01  linmin:  1.132e-06  t[s]:   1217.85
	FillingsUpdate:  mu: -0.110783813  nElectrons: 447.500000  magneticMoment: [ Abs: 0.00321  Tot: -0.00316 ]
	SubspaceRotationAdjust: set factor to 0.472
ElecMinimize: Iter:  11  F: -1826.753090291457056  |grad|_K:  8.504e-07  alpha:  5.650e-01  linmin:  2.061e-06  t[s]:   1272.49
	FillingsUpdate:  mu: -0.110320017  nElectrons: 447.500000  magneticMoment: [ Abs: 0.00261  Tot: -0.00257 ]
	SubspaceRotationAdjust: set factor to 0.458
ElecMinimize: Iter:  12  F: -1826.753164689596133  |grad|_K:  6.013e-07  alpha:  5.929e-01  linmin:  2.357e-06  t[s]:   1327.13
	FillingsUpdate:  mu: -0.110704211  nElectrons: 447.500000  magneticMoment: [ Abs: 0.00206  Tot: -0.00203 ]
	SubspaceRotationAdjust: set factor to 0.464
ElecMinimize: Iter:  13  F: -1826.753204622631984  |grad|_K:  4.396e-07  alpha:  6.368e-01  linmin:  1.949e-06  t[s]:   1381.86
	FillingsUpdate:  mu: -0.110686216  nElectrons: 447.500000  magneticMoment: [ Abs: 0.00159  Tot: -0.00156 ]
	SubspaceRotationAdjust: set factor to 0.52
ElecMinimize: Iter:  14  F: -1826.753226142357789  |grad|_K:  3.213e-07  alpha:  6.421e-01  linmin:  1.156e-06  t[s]:   1436.47
	FillingsUpdate:  mu: -0.110524351  nElectrons: 447.500000  magneticMoment: [ Abs: 0.00118  Tot: -0.00116 ]
	SubspaceRotationAdjust: set factor to 0.542
ElecMinimize: Iter:  15  F: -1826.753238187390707  |grad|_K:  2.536e-07  alpha:  6.724e-01  linmin:  7.838e-07  t[s]:   1491.02
	FillingsUpdate:  mu: -0.110713148  nElectrons: 447.500000  magneticMoment: [ Abs: 0.00083  Tot: -0.00082 ]
	SubspaceRotationAdjust: set factor to 0.513
ElecMinimize: Iter:  16  F: -1826.753245085189974  |grad|_K:  2.055e-07  alpha:  6.177e-01  linmin:  2.473e-07  t[s]:   1545.77
	FillingsUpdate:  mu: -0.110551259  nElectrons: 447.500000  magneticMoment: [ Abs: 0.00054  Tot: -0.00053 ]
	SubspaceRotationAdjust: set factor to 0.483
ElecMinimize: Iter:  17  F: -1826.753249302295671  |grad|_K:  1.576e-07  alpha:  5.745e-01  linmin:  4.259e-07  t[s]:   1600.50
	FillingsUpdate:  mu: -0.110621015  nElectrons: 447.500000  magneticMoment: [ Abs: 0.00032  Tot: -0.00031 ]
	SubspaceRotationAdjust: set factor to 0.49
ElecMinimize: Iter:  18  F: -1826.753251923689277  |grad|_K:  1.165e-07  alpha:  6.084e-01  linmin:  3.232e-07  t[s]:   1655.15
	FillingsUpdate:  mu: -0.110579414  nElectrons: 447.500000  magneticMoment: [ Abs: 0.00016  Tot: -0.00015 ]
	SubspaceRotationAdjust: set factor to 0.544
ElecMinimize: Iter:  19  F: -1826.753253416220105  |grad|_K:  8.618e-08  alpha:  6.334e-01  linmin:  4.589e-07  t[s]:   1709.88
	FillingsUpdate:  mu: -0.110564784  nElectrons: 447.500000  magneticMoment: [ Abs: 0.00006  Tot: -0.00006 ]
	SubspaceRotationAdjust: set factor to 0.634
ElecMinimize: Iter:  20  F: -1826.753254214074786  |grad|_K:  6.374e-08  alpha:  6.192e-01  linmin:  3.293e-07  t[s]:   1764.83
	FillingsUpdate:  mu: -0.110601812  nElectrons: 447.500000  magneticMoment: [ Abs: 0.00000  Tot: -0.00000 ]
	SubspaceRotationAdjust: set factor to 0.658
ElecMinimize: Iter:  21  F: -1826.753254613317949  |grad|_K:  4.845e-08  alpha:  5.659e-01  linmin:  2.209e-07  t[s]:   1819.67
	FillingsUpdate:  mu: -0.110560300  nElectrons: 447.500000  magneticMoment: [ Abs: 0.00002  Tot: +0.00002 ]
	SubspaceRotationAdjust: set factor to 0.566
ElecMinimize: Iter:  22  F: -1826.753254806821133  |grad|_K:  3.504e-08  alpha:  4.748e-01  linmin:  4.909e-08  t[s]:   1874.72
	FillingsUpdate:  mu: -0.110588236  nElectrons: 447.500000  magneticMoment: [ Abs: 0.00003  Tot: +0.00003 ]
	SubspaceRotationAdjust: set factor to 0.516
ElecMinimize: Iter:  23  F: -1826.753254906294615  |grad|_K:  2.295e-08  alpha:  4.663e-01  linmin:  1.809e-07  t[s]:   1929.36
	FillingsUpdate:  mu: -0.110582300  nElectrons: 447.500000  magneticMoment: [ Abs: 0.00004  Tot: +0.00004 ]
	SubspaceRotationAdjust: set factor to 0.556
ElecMinimize: Iter:  24  F: -1826.753254956043975  |grad|_K:  1.565e-08  alpha:  5.444e-01  linmin:  2.740e-08  t[s]:   1984.22
	FillingsUpdate:  mu: -0.110581670  nElectrons: 447.500000  magneticMoment: [ Abs: 0.00004  Tot: +0.00003 ]
	SubspaceRotationAdjust: set factor to 0.636
ElecMinimize: Iter:  25  F: -1826.753254981141481  |grad|_K:  1.133e-08  alpha:  5.909e-01  linmin:  1.736e-07  t[s]:   2038.88
	FillingsUpdate:  mu: -0.110587242  nElectrons: 447.500000  magneticMoment: [ Abs: 0.00003  Tot: +0.00003 ]
	SubspaceRotationAdjust: set factor to 0.697
ElecMinimize: Iter:  26  F: -1826.753254993549035  |grad|_K:  8.459e-09  alpha:  5.585e-01  linmin: -3.422e-08  t[s]:   2093.65
	FillingsUpdate:  mu: -0.110580617  nElectrons: 447.500000  magneticMoment: [ Abs: 0.00003  Tot: +0.00003 ]
	SubspaceRotationAdjust: set factor to 0.655
ElecMinimize: Iter:  27  F: -1826.753254999847968  |grad|_K:  6.613e-09  alpha:  5.064e-01  linmin:  1.166e-07  t[s]:   2148.41
	FillingsUpdate:  mu: -0.110585791  nElectrons: 447.500000  magneticMoment: [ Abs: 0.00002  Tot: +0.00002 ]
	SubspaceRotationAdjust: set factor to 0.553
ElecMinimize: Iter:  28  F: -1826.753255003188997  |grad|_K:  4.446e-09  alpha:  4.333e-01  linmin: -1.742e-07  t[s]:   2202.93
ElecMinimize: Converged (|Delta F|<1.000000e-08 for 2 iters).
Setting wave functions to eigenvectors of Hamiltonian
Vacuum energy after initial minimize, F = -1826.753255003188997

	Linear fluid (dielectric constant: 78.4, screening length: 5.74355 Bohr) occupying 0.753787 of unit cell:	Completed after 14 iterations at t[s]:   2216.93

-------- Electronic minimization -----------
	Linear fluid (dielectric constant: 78.4, screening length: 5.74355 Bohr) occupying 0.753787 of unit cell:	Completed after 0 iterations at t[s]:   2233.77
	FillingsUpdate:  mu: -0.167433187  nElectrons: 447.500000  magneticMoment: [ Abs: 0.00017  Tot: +0.00001 ]
ElecMinimize: Iter:   0  F: -1826.708177781162249  |grad|_K:  1.284e-06  alpha:  1.000e+00
	Linear fluid (dielectric constant: 78.4, screening length: 5.74355 Bohr) occupying 0.754311 of unit cell:	Completed after 10 iterations at t[s]:   2278.62
	Linear fluid (dielectric constant: 78.4, screening length: 5.74355 Bohr) occupying 0.754058 of unit cell:	Completed after 9 iterations at t[s]:   2301.80
	FillingsUpdate:  mu: -0.164498308  nElectrons: 447.500000  magneticMoment: [ Abs: 0.00014  Tot: -0.00000 ]
	SubspaceRotationAdjust: set factor to 0.417
ElecMinimize: Iter:   1  F: -1826.708324116905942  |grad|_K:  1.130e-06  alpha:  5.133e-01  linmin:  6.488e-07  t[s]:   2328.98
	Linear fluid (dielectric constant: 78.4, screening length: 5.74355 Bohr) occupying 0.754382 of unit cell:	Completed after 8 iterations at t[s]:   2346.25
	Linear fluid (dielectric constant: 78.4, screening length: 5.74355 Bohr) occupying 0.754355 of unit cell:	Completed after 2 iterations at t[s]:   2367.88
	FillingsUpdate:  mu: -0.164411250  nElectrons: 447.500000  magneticMoment: [ Abs: 0.00010  Tot: -0.00003 ]
	SubspaceRotationAdjust: set factor to 0.494
ElecMinimize: Iter:   2  F: -1826.708427765338911  |grad|_K:  5.163e-07  alpha:  4.686e-01  linmin:  1.531e-07  t[s]:   2393.84
	Linear fluid (dielectric constant: 78.4, screening length: 5.74355 Bohr) occupying 0.754445 of unit cell:	Completed after 3 iterations at t[s]:   2410.26
	Linear fluid (dielectric constant: 78.4, screening length: 5.74355 Bohr) occupying 0.754453 of unit cell:	Completed after 0 iterations at t[s]:   2430.11
	FillingsUpdate:  mu: -0.164436575  nElectrons: 447.500000  magneticMoment: [ Abs: 0.00007  Tot: -0.00003 ]
	SubspaceRotationAdjust: set factor to 0.594
ElecMinimize: Iter:   3  F: -1826.708451533906327  |grad|_K:  2.367e-07  alpha:  5.122e-01  linmin: -6.344e-06  t[s]:   2455.13
	Linear fluid (dielectric constant: 78.4, screening length: 5.74355 Bohr) occupying 0.754484 of unit cell:	Completed after 2 iterations at t[s]:   2471.42
	Linear fluid (dielectric constant: 78.4, screening length: 5.74355 Bohr) occupying 0.754491 of unit cell:	Completed after 0 iterations at t[s]:   2491.34
	FillingsUpdate:  mu: -0.164538152  nElectrons: 447.500000  magneticMoment: [ Abs: 0.00005  Tot: -0.00004 ]
	SubspaceRotationAdjust: set factor to 0.665
ElecMinimize: Iter:   4  F: -1826.708457979403420  |grad|_K:  1.375e-07  alpha:  6.294e-01  linmin: -1.876e-05  t[s]:   2516.32
	Linear fluid (dielectric constant: 78.4, screening length: 5.74355 Bohr) occupying 0.754508 of unit cell:	Completed after 2 iterations at t[s]:   2532.60
	Linear fluid (dielectric constant: 78.4, screening length: 5.74355 Bohr) occupying 0.754506 of unit cell:	Completed after 0 iterations at t[s]:   2552.58
	FillingsUpdate:  mu: -0.164472470  nElectrons: 447.500000  magneticMoment: [ Abs: 0.00004  Tot: -0.00003 ]
	SubspaceRotationAdjust: set factor to 0.572
ElecMinimize: Iter:   5  F: -1826.708460047980452  |grad|_K:  1.084e-07  alpha:  5.806e-01  linmin: -1.061e-07  t[s]:   2577.72
	Linear fluid (dielectric constant: 78.4, screening length: 5.74355 Bohr) occupying 0.754513 of unit cell:	Completed after 2 iterations at t[s]:   2594.12
	Linear fluid (dielectric constant: 78.4, screening length: 5.74355 Bohr) occupying 0.754513 of unit cell:	Completed after 0 iterations at t[s]:   2614.02
	FillingsUpdate:  mu: -0.164544382  nElectrons: 447.500000  magneticMoment: [ Abs: 0.00003  Tot: -0.00003 ]
	SubspaceRotationAdjust: set factor to 0.432
ElecMinimize: Iter:   6  F: -1826.708461088169770  |grad|_K:  7.444e-08  alpha:  5.099e-01  linmin:  2.052e-06  t[s]:   2638.99
	Linear fluid (dielectric constant: 78.4, screening length: 5.74355 Bohr) occupying 0.754515 of unit cell:	Completed after 2 iterations at t[s]:   2655.06
	Linear fluid (dielectric constant: 78.4, screening length: 5.74355 Bohr) occupying 0.754514 of unit cell:	Completed after 0 iterations at t[s]:   2674.86
	FillingsUpdate:  mu: -0.164472381  nElectrons: 447.500000  magneticMoment: [ Abs: 0.00003  Tot: -0.00002 ]
	SubspaceRotationAdjust: set factor to 0.348
ElecMinimize: Iter:   7  F: -1826.708461466543213  |grad|_K:  5.340e-08  alpha:  3.995e-01  linmin:  7.680e-06  t[s]:   2699.45
	Linear fluid (dielectric constant: 78.4, screening length: 5.74355 Bohr) occupying 0.754514 of unit cell:	Completed after 0 iterations at t[s]:   2715.13
	Linear fluid (dielectric constant: 78.4, screening length: 5.74355 Bohr) occupying 0.754514 of unit cell:	Completed after 1 iterations at t[s]:   2734.67
	FillingsUpdate:  mu: -0.164482522  nElectrons: 447.500000  magneticMoment: [ Abs: 0.00002  Tot: -0.00002 ]
	SubspaceRotationAdjust: set factor to 0.409
ElecMinimize: Iter:   8  F: -1826.708461714644955  |grad|_K:  3.486e-08  alpha:  6.389e-01  linmin:  2.151e-05  t[s]:   2760.28
	Linear fluid (dielectric constant: 78.4, screening length: 5.74355 Bohr) occupying 0.754513 of unit cell:	Completed after 2 iterations at t[s]:   2776.61
	Linear fluid (dielectric constant: 78.4, screening length: 5.74355 Bohr) occupying 0.754513 of unit cell:	Completed after 0 iterations at t[s]:   2796.12
	FillingsUpdate:  mu: -0.164511712  nElectrons: 447.500000  magneticMoment: [ Abs: 0.00002  Tot: -0.00002 ]
	SubspaceRotationAdjust: set factor to 0.39
ElecMinimize: Iter:   9  F: -1826.708461743765383  |grad|_K:  3.930e-08  alpha:  3.056e-01  linmin:  3.229e-07  t[s]:   2821.41
	Linear fluid (dielectric constant: 78.4, screening length: 5.74355 Bohr) occupying 0.754513 of unit cell:	Completed after 0 iterations at t[s]:   2837.27
	Linear fluid (dielectric constant: 78.4, screening length: 5.74355 Bohr) occupying 0.754513 of unit cell:	Completed after 0 iterations at t[s]:   2856.82
	FillingsUpdate:  mu: -0.164509696  nElectrons: 447.500000  magneticMoment: [ Abs: 0.00002  Tot: -0.00001 ]
	SubspaceRotationAdjust: set factor to 0.535
ElecMinimize: Iter:  10  F: -1826.708461806639662  |grad|_K:  3.572e-08  alpha:  2.492e-01  linmin: -9.680e-06  t[s]:   2881.74
	Linear fluid (dielectric constant: 78.4, screening length: 5.74355 Bohr) occupying 0.754513 of unit cell:	Completed after 1 iterations at t[s]:   2897.79
	Linear fluid (dielectric constant: 78.4, screening length: 5.74355 Bohr) occupying 0.754513 of unit cell:	Completed after 0 iterations at t[s]:   2917.74
ElecMinimize: 	Step increased F by 3.851710e-10, reducing alpha to 8.704375e-03.
	Linear fluid (dielectric constant: 78.4, screening length: 5.74355 Bohr) occupying 0.754513 of unit cell:	Completed after 0 iterations at t[s]:   2955.60
	FillingsUpdate:  mu: -0.164456981  nElectrons: 447.500000  magneticMoment: [ Abs: 0.00002  Tot: -0.00001 ]
	SubspaceRotationAdjust: set factor to 0.399
ElecMinimize: Iter:  11  F: -1826.708461824761116  |grad|_K:  3.230e-08  alpha:  8.704e-03  linmin:  3.152e-05  t[s]:   2980.59
	Linear fluid (dielectric constant: 78.4, screening length: 5.74355 Bohr) occupying 0.754513 of unit cell:	Completed after 0 iterations at t[s]:   2996.31
ElecMinimize: 	Predicted alpha/alphaT>3.000000, increasing alphaT to 2.611312e-02.
	Linear fluid (dielectric constant: 78.4, screening length: 5.74355 Bohr) occupying 0.754513 of unit cell:	Completed after 0 iterations at t[s]:   3015.22
ElecMinimize: 	Predicted alpha/alphaT>3.000000, increasing alphaT to 7.833937e-02.
	Linear fluid (dielectric constant: 78.4, screening length: 5.74355 Bohr) occupying 0.754513 of unit cell:	Completed after 0 iterations at t[s]:   3034.27
	Linear fluid (dielectric constant: 78.4, screening length: 5.74355 Bohr) occupying 0.754513 of unit cell:	Completed after 0 iterations at t[s]:   3053.34
	FillingsUpdate:  mu: -0.164457107  nElectrons: 447.500000  magneticMoment: [ Abs: 0.00001  Tot: -0.00001 ]
	SubspaceRotationAdjust: set factor to 0.468
ElecMinimize: Iter:  12  F: -1826.708461842523548  |grad|_K:  2.559e-08  alpha:  1.702e-01  linmin: -2.298e-07  t[s]:   3078.44
	Linear fluid (dielectric constant: 78.4, screening length: 5.74355 Bohr) occupying 0.754512 of unit cell:	Completed after 0 iterations at t[s]:   3094.27
	Linear fluid (dielectric constant: 78.4, screening length: 5.74355 Bohr) occupying 0.754512 of unit cell:	Completed after 0 iterations at t[s]:   3113.19
	FillingsUpdate:  mu: -0.164456918  nElectrons: 447.500000  magneticMoment: [ Abs: 0.00001  Tot: -0.00001 ]
	SubspaceRotationAdjust: set factor to 0.573
ElecMinimize: Iter:  13  F: -1826.708461874492514  |grad|_K:  2.621e-08  alpha:  2.815e-01  linmin:  2.233e-07  t[s]:   3138.83
	Linear fluid (dielectric constant: 78.4, screening length: 5.74355 Bohr) occupying 0.754510 of unit cell:	Completed after 2 iterations at t[s]:   3155.05
	Linear fluid (dielectric constant: 78.4, screening length: 5.74355 Bohr) occupying 0.754512 of unit cell:	Completed after 0 iterations at t[s]:   3175.06
ElecMinimize: 	Step increased F by 2.936918e-08, reducing alpha to 3.416401e-03.
	Linear fluid (dielectric constant: 78.4, screening length: 5.74355 Bohr) occupying 0.754512 of unit cell:	Completed after 0 iterations at t[s]:   3212.44
ElecMinimize: 	Step increased F by 9.819587e-09, reducing alpha to 3.416401e-04.
	Linear fluid (dielectric constant: 78.4, screening length: 5.74355 Bohr) occupying 0.754512 of unit cell:	Completed after 0 iterations at t[s]:   3250.03
ElecMinimize: 	Step increased F by 7.933977e-09, reducing alpha to 3.416401e-05.
ElecMinimize: 	Step failed to reduce F after 3 attempts. Quitting step.
ElecMinimize: 	Undoing step.
	Linear fluid (dielectric constant: 78.4, screening length: 5.74355 Bohr) occupying 0.754512 of unit cell:	Completed after 0 iterations at t[s]:   3287.57
ElecMinimize: 	Step failed: resetting search direction.
	FillingsUpdate:  mu: -0.164534788  nElectrons: 447.500000  magneticMoment: [ Abs: 0.00001  Tot: -0.00001 ]
	SubspaceRotationAdjust: set factor to 0.44
ElecMinimize: Iter:  14  F: -1826.708461866564448  |grad|_K:  5.980e-08  alpha:  3.416e-05
	Linear fluid (dielectric constant: 78.4, screening length: 5.74355 Bohr) occupying 0.754512 of unit cell:	Completed after 1 iterations at t[s]:   3328.49
	Linear fluid (dielectric constant: 78.4, screening length: 5.74355 Bohr) occupying 0.754512 of unit cell:	Completed after 0 iterations at t[s]:   3347.95
	FillingsUpdate:  mu: -0.164428134  nElectrons: 447.500000  magneticMoment: [ Abs: 0.00001  Tot: -0.00001 ]
	SubspaceRotationAdjust: set factor to 0.227
ElecMinimize: Iter:  15  F: -1826.708461909187690  |grad|_K:  4.964e-08  alpha:  9.838e-02  linmin:  3.140e-04  t[s]:   3373.01
	Linear fluid (dielectric constant: 78.4, screening length: 5.74355 Bohr) occupying 0.754512 of unit cell:	Completed after 0 iterations at t[s]:   3388.88
ElecMinimize: 	Predicted alpha/alphaT>3.000000, increasing alphaT to 2.951309e-01.
	Linear fluid (dielectric constant: 78.4, screening length: 5.74355 Bohr) occupying 0.754512 of unit cell:	Completed after 0 iterations at t[s]:   3408.08
	Linear fluid (dielectric constant: 78.4, screening length: 5.74355 Bohr) occupying 0.754511 of unit cell:	Completed after 0 iterations at t[s]:   3427.29
	FillingsUpdate:  mu: -0.164428036  nElectrons: 447.500000  magneticMoment: [ Abs: 0.00001  Tot: -0.00001 ]
	SubspaceRotationAdjust: set factor to 0.241
ElecMinimize: Iter:  16  F: -1826.708461941051155  |grad|_K:  4.114e-08  alpha:  3.317e-01  linmin:  6.874e-08  t[s]:   3452.46
	Linear fluid (dielectric constant: 78.4, screening length: 5.74355 Bohr) occupying 0.754511 of unit cell:	Completed after 2 iterations at t[s]:   3468.71
	Linear fluid (dielectric constant: 78.4, screening length: 5.74355 Bohr) occupying 0.754511 of unit cell:	Completed after 0 iterations at t[s]:   3488.70
ElecMinimize: 	Step increased F by 6.397113e-08, reducing alpha to 8.352836e-03.
	Linear fluid (dielectric constant: 78.4, screening length: 5.74355 Bohr) occupying 0.754511 of unit cell:	Completed after 0 iterations at t[s]:   3526.56
ElecMinimize: 	Step increased F by 4.962885e-08, reducing alpha to 8.352836e-04.
	Linear fluid (dielectric constant: 78.4, screening length: 5.74355 Bohr) occupying 0.754511 of unit cell:	Completed after 0 iterations at t[s]:   3564.73
ElecMinimize: 	Step increased F by 4.690264e-08, reducing alpha to 8.352836e-05.
ElecMinimize: 	Step failed to reduce F after 3 attempts. Quitting step.
ElecMinimize: 	Undoing step.
	Linear fluid (dielectric constant: 78.4, screening length: 5.74355 Bohr) occupying 0.754511 of unit cell:	Completed after 0 iterations at t[s]:   3602.59
ElecMinimize: 	Step failed: resetting search direction.
	FillingsUpdate:  mu: -0.164508779  nElectrons: 447.500000  magneticMoment: [ Abs: 0.00001  Tot: -0.00001 ]
	SubspaceRotationAdjust: set factor to 0.157
ElecMinimize: Iter:  17  F: -1826.708461894098491  |grad|_K:  3.245e-08  alpha:  8.353e-05
	Linear fluid (dielectric constant: 78.4, screening length: 5.74355 Bohr) occupying 0.754511 of unit cell:	Completed after 2 iterations at t[s]:   3643.56
	Linear fluid (dielectric constant: 78.4, screening length: 5.74355 Bohr) occupying 0.754511 of unit cell:	Completed after 0 iterations at t[s]:   3663.19
ElecMinimize: 	Step increased F by 3.662490e-08, reducing alpha to 9.209615e-03.
	Linear fluid (dielectric constant: 78.4, screening length: 5.74355 Bohr) occupying 0.754511 of unit cell:	Completed after 0 iterations at t[s]:   3701.06
ElecMinimize: 	Step increased F by 2.305819e-08, reducing alpha to 9.209615e-04.
	Linear fluid (dielectric constant: 78.4, screening length: 5.74355 Bohr) occupying 0.754511 of unit cell:	Completed after 0 iterations at t[s]:   3738.57
ElecMinimize: 	Step increased F by 2.202842e-08, reducing alpha to 9.209615e-05.
ElecMinimize: 	Step failed to reduce F after 3 attempts. Quitting step.
ElecMinimize: 	Undoing step.
	Linear fluid (dielectric constant: 78.4, screening length: 5.74355 Bohr) occupying 0.754511 of unit cell:	Completed after 0 iterations at t[s]:   3776.27
ElecMinimize: 	Step failed along negative gradient direction.
ElecMinimize: Probably at roundoff error limit. (Stopping)
Setting wave functions to eigenvectors of Hamiltonian
Single-point solvation energy estimate, DeltaF = +0.044793131046390

# Ionic positions in lattice coordinates:
ion Ru   0.166667780006944   0.083332224305556   0.499999991000000 1
ion Ru   0.416667780006944   0.083332224305556   0.499999991000000 1
ion Ru   0.666667780006944   0.083332224305556   0.499999991000000 1
ion Ru   0.916667780006944   0.083332224305556   0.499999991000000 1
ion Ru   0.166667780006944   0.333332224305556   0.499999991000000 1
ion Ru   0.416667780006944   0.333332224305556   0.499999991000000 1
ion Ru   0.666667780006944   0.333332224305556   0.499999991000000 1
ion Ru   0.916667780006944   0.333332224305556   0.499999991000000 1
ion Ru   0.166667780006944   0.583332224305556   0.499999991000000 1
ion Ru   0.416667780006944   0.583332224305556   0.499999991000000 1
ion Ru   0.666667780006944   0.583332224305556   0.499999991000000 1
ion Ru   0.916667780006944   0.583332224305556   0.499999991000000 1
ion Ru   0.166667780006944   0.833332224305556   0.499999991000000 1
ion Ru   0.416667780006944   0.833332224305556   0.499999991000000 1
ion Ru   0.666667780006944   0.833332224305556   0.499999991000000 1
ion Ru   0.916667780006944   0.833332224305556   0.499999991000000 1
ion Se   0.000001113340278  -0.000001109027778   0.583714461794762 1
ion Se   0.000001113340278  -0.000001109027778   0.416285520205238 1
ion Se   0.250001113340278  -0.000001109027778   0.583714461794762 1
ion Se   0.250001113340278  -0.000001109027778   0.416285520205238 1
ion Se   0.500001113340278  -0.000001109027778   0.583714461794762 1
ion Se   0.500001113340278  -0.000001109027778   0.416285520205238 1
ion Se   0.750001113340278  -0.000001109027778   0.583714461794762 1
ion Se   0.750001113340278  -0.000001109027778   0.416285520205238 1
ion Se   0.000001113340278   0.249998890972222   0.583714461794762 1
ion Se   0.000001113340278   0.249998890972222   0.416285520205238 1
ion Se   0.250001113340278   0.249998890972222   0.583714461794762 1
ion Se   0.250001113340278   0.249998890972222   0.416285520205238 1
ion Se   0.500001113340278   0.249998890972222   0.583714461794762 1
ion Se   0.500001113340278   0.249998890972222   0.416285520205238 1
ion Se   0.750001113340278   0.249998890972222   0.583714461794762 1
ion Se   0.750001113340278   0.249998890972222   0.416285520205238 1
ion Se   0.000001113340278   0.499998890972222   0.583714461794762 1
ion Se   0.000001113340278   0.499998890972222   0.416285520205238 1
ion Se   0.250001113340278   0.499998890972222   0.583714461794762 1
ion Se   0.250001113340278   0.499998890972222   0.416285520205238 1
ion Se   0.500001113340278   0.499998890972222   0.583714461794762 1
ion Se   0.500001113340278   0.499998890972222   0.416285520205238 1
ion Se   0.750001113340278   0.499998890972222   0.583714461794762 1
ion Se   0.750001113340278   0.499998890972222   0.416285520205238 1
ion Se   0.000001113340278   0.749998890972222   0.583714461794762 1
ion Se   0.000001113340278   0.749998890972222   0.416285520205238 1
ion Se   0.250001113340278   0.749998890972222   0.583714461794762 1
ion Se   0.250001113340278   0.749998890972222   0.416285520205238 1
ion Se   0.500001113340278   0.749998890972222   0.583714461794762 1
ion Se   0.500001113340278   0.749998890972222   0.416285520205238 1
ion Se   0.750001113340278   0.749998890972222   0.583714461794762 1
ion Se   0.750001113340278   0.749998890972222   0.416285520205238 1


# Forces in Lattice coordinates:
force Ru   0.000000000000000   0.000000000000000  -0.000000000000000 1
force Ru  -0.000000000000000   0.000000000000000   0.000000000000000 1
force Ru   0.000000000000000   0.000000000000000   0.000000000000000 1
force Ru  -0.000000000000000   0.000000000000000   0.000000000000000 1
force Ru  -0.000000000000000   0.000000000000000   0.000000000000000 1
force Ru  -0.000000000000000  -0.000000000000000  -0.000000000000000 1
force Ru   0.000000000000000   0.000000000000000   0.000000000000000 1
force Ru   0.000000000000000   0.000000000000000  -0.000000000000000 1
force Ru  -0.000000000000000   0.000000000000000   0.000000000000000 1
force Ru  -0.000000000000000   0.000000000000000   0.000000000000000 1
force Ru   0.000000000000000   0.000000000000000   0.000000000000000 1
force Ru   0.000000000000000   0.000000000000000  -0.000000000000000 1
force Ru  -0.000000000000000   0.000000000000000   0.000000000000000 1
force Ru  -0.000000000000000  -0.000000000000000   0.000000000000000 1
force Ru  -0.000000000000000  -0.000000000000000  -0.000000000000000 1
force Ru  -0.000000000000000   0.000000000000000  -0.000000000000000 1
force Se  -0.000000000000000   0.000000000000000  -0.002518672552587 1
force Se  -0.000000000000000  -0.000000000000000   0.002518672552584 1
force Se   0.000000000000000   0.000000000000000  -0.002518672552586 1
force Se   0.000000000000000   0.000000000000000   0.002518672552584 1
force Se   0.000000000000000   0.000000000000000  -0.002518672552587 1
force Se   0.000000000000000   0.000000000000000   0.002518672552584 1
force Se   0.000000000000000   0.000000000000000  -0.002518672552701 1
force Se  -0.000000000000000   0.000000000000000   0.002518672552696 1
force Se  -0.000000000000000   0.000000000000000  -0.002518672552698 1
force Se   0.000000000000000   0.000000000000000   0.002518672552584 1
force Se   0.000000000000000   0.000000000000000  -0.002518672552698 1
force Se   0.000000000000000   0.000000000000000   0.002518672552697 1
force Se   0.000000000000000   0.000000000000000  -0.002518672552584 1
force Se   0.000000000000000   0.000000000000000   0.002518672552583 1
force Se   0.000000000000000   0.000000000000000  -0.002518672552585 1
force Se   0.000000000000000   0.000000000000000   0.002518672552583 1
force Se   0.000000000000000   0.000000000000000  -0.002518672552698 1
force Se  -0.000000000000000   0.000000000000000   0.002518672552585 1
force Se  -0.000000000000000   0.000000000000000  -0.002518672552697 1
force Se   0.000000000000000   0.000000000000000   0.002518672552585 1
force Se   0.000000000000000   0.000000000000000  -0.002518672552584 1
force Se   0.000000000000000   0.000000000000000   0.002518672552584 1
force Se  -0.000000000000000   0.000000000000000  -0.002518672552584 1
force Se  -0.000000000000000   0.000000000000000   0.002518672552583 1
force Se   0.000000000000000   0.000000000000000  -0.002518672552586 1
force Se  -0.000000000000000  -0.000000000000000   0.002518672552585 1
force Se   0.000000000000000   0.000000000000000  -0.002518672552701 1
force Se   0.000000000000000   0.000000000000000   0.002518672552698 1
force Se  -0.000000000000000  -0.000000000000000  -0.002518672552814 1
force Se  -0.000000000000000   0.000000000000000   0.002518672552585 1
force Se   0.000000000000000   0.000000000000000  -0.002518672552587 1
force Se  -0.000000000000000   0.000000000000000   0.002518672552696 1

# Energy components:
   A_diel =        0.0389882046375822
   Eewald =     8540.4519739042134461
       EH =    10078.0456424971944216
     Eloc =   -21113.3211338339060603
      Enl =      366.3251114431889164
      Exc =     -682.3402096389382905
 Exc_core =      425.1673876852686931
       KE =      559.0482557822638228
  MuShift =        0.0055184453220247
-------------------------------------
     Etot =    -1826.5784655107565868
       TS =        0.1299963613861216
-------------------------------------
        F =    -1826.7084618721426068

IonicMinimize: Iter:   0  F: -1826.708461872142607  |grad|_K:  3.465e-05  t[s]:   3815.72
IonicMinimize: Converged (|grad|_K<1.000000e-04).

#--- Lowdin population analysis ---
# oxidation-state Ru -0.829 -0.829 -0.829 -0.829 -0.829 -0.829 -0.829 -0.829 -0.829 -0.829 -0.829 -0.829 -0.829 -0.829 -0.829 -0.829
# magnetic-moments Ru -0.000 -0.000 -0.000 -0.000 -0.000 -0.000 -0.000 -0.000 -0.000 -0.000 -0.000 -0.000 -0.000 -0.000 -0.000 -0.000
# oxidation-state Se +0.498 +0.498 +0.498 +0.498 +0.498 +0.498 +0.498 +0.498 +0.498 +0.498 +0.498 +0.498 +0.498 +0.498 +0.498 +0.498 +0.498 +0.498 +0.498 +0.498 +0.498 +0.498 +0.498 +0.498 +0.498 +0.498 +0.498 +0.498 +0.498 +0.498 +0.498 +0.498
# magnetic-moments Se +0.000 +0.000 +0.000 +0.000 +0.000 +0.000 +0.000 +0.000 +0.000 +0.000 +0.000 +0.000 +0.000 +0.000 +0.000 +0.000 +0.000 +0.000 +0.000 +0.000 +0.000 +0.000 +0.000 +0.000 +0.000 +0.000 +0.000 +0.000 +0.000 +0.000 +0.000 +0.000


Dumping 'NbTe2.fillings' ... done
Dumping 'NbTe2.wfns' ... done
Dumping 'NbTe2.fluidState' ... done
Dumping 'NbTe2.ionpos' ... done
Dumping 'NbTe2.eigenvals' ... done
End date and time: Wed Feb  3 08:23:25 2021  (Duration: 0-1:03:42.05)
Done!
