
*************** JDFTx 1.5.0  ***************

Start date and time: Fri Jul 10 17:04:45 2020
Executable jdftx_gpu with command-line: -i Neutral.in -o Neutral.out
Running on hosts (process indices):  amax (0)
Divided in process groups (process indices):  0 (0)
gpuInit: Found compatible cuda device 0 'Tesla K80'
gpuInit: Selected device 0
Resource initialization completed at t[s]:      8.71
Run totals: 1 processes, 24 threads, 1 GPUs


Input parsed successfully to the following command list (including defaults):

basis kpoint-dependent
cache-projectors no
coords-type Lattice
core-overlap-check none
coulomb-interaction Slab 001
coulomb-truncation-embed 0 0 0.5
davidson-band-ratio 1.1
dump End State
dump-name NbTe2.$VAR
elec-cutoff 20 100
elec-eigen-algo Davidson
elec-ex-corr gga-PBE
elec-smearing Gauss 0.0073499
electronic-minimize  \
	dirUpdateScheme      FletcherReeves \
	linminMethod         DirUpdateRecommended \
	nIterations          100 \
	history              15 \
	knormThreshold       0 \
	energyDiffThreshold  1e-08 \
	nEnergyDiff          2 \
	alphaTstart          1 \
	alphaTmin            1e-10 \
	updateTestStepSize   yes \
	alphaTreduceFactor   0.1 \
	alphaTincreaseFactor 3 \
	nAlphaAdjustMax      3 \
	wolfeEnergy          0.0001 \
	wolfeGradient        0.9 \
	fdTest               no
electronic-scf  \
	nIterations	500 \
	energyDiffThreshold	1e-08 \
	residualThreshold	1e-07 \
	mixFraction	0.5 \
	qMetric	0.8 \
	history	10 \
	nEigSteps	2 \
	eigDiffThreshold	1e-08 \
	mixedVariable	Density \
	qKerker	0.8 \
	qKappa	-1 \
	verbose	no \
	mixFractionMag	1.5
exchange-regularization WignerSeitzTruncated
fluid LinearPCM 298.000000 1.013250
fluid-anion F- 1 MeanFieldLJ \
	epsBulk 1 \
	pMol 0 \
	epsInf 1 \
	Pvap 0 \
	sigmaBulk 0 \
	Rvdw 2.24877 \
	Res 0 \
	tauNuc 343133
fluid-cation Na+ 1 MeanFieldLJ \
	epsBulk 1 \
	pMol 0 \
	epsInf 1 \
	Pvap 0 \
	sigmaBulk 0 \
	Rvdw 2.19208 \
	Res 0 \
	tauNuc 343133
fluid-ex-corr lda-TF lda-PZ
fluid-gummel-loop 10 1.000000e-05
fluid-minimize  \
	dirUpdateScheme      PolakRibiere \
	linminMethod         DirUpdateRecommended \
	nIterations          400 \
	history              15 \
	knormThreshold       1e-11 \
	energyDiffThreshold  0 \
	nEnergyDiff          2 \
	alphaTstart          1 \
	alphaTmin            1e-10 \
	updateTestStepSize   yes \
	alphaTreduceFactor   0.1 \
	alphaTincreaseFactor 3 \
	nAlphaAdjustMax      6 \
	wolfeEnergy          0.0001 \
	wolfeGradient        0.9 \
	fdTest               no
fluid-solvent H2O 55.338 ScalarEOS \
	epsBulk 78.4 \
	pMol 0.92466 \
	epsInf 1.77 \
	Pvap 1.06736e-10 \
	sigmaBulk 4.62e-05 \
	Rvdw 2.61727 \
	Res 1.42 \
	tauNuc 343133 \
	poleEl 15 7 1
forces-output-coords Positions
initial-state NbTe2.$VAR
ion Mn   0.332731926076709  -0.000009965335930   0.500001369490486 0
ion Mn   0.000188858805733   0.500007379152293   0.500001907595891 0
ion Mn   0.666063795606023   0.000014377143345   0.500009079265215 0
ion Mn   0.333512886203484   0.500016685972462   0.500003064264151 0
ion Mn   0.999383009752197   0.000002275984406   0.500003670915429 0
ion Mn   0.666835733400282   0.500011281334794   0.500004256229994 0
ion Sb   0.166778443831345   0.297674883615830   0.616376003149675 0
ion Sb   0.166887374185579   0.702423394417107   0.383628936467138 0
ion Sb   0.500107101651037   0.297698975146059   0.616373041058065 0
ion Sb   0.500254154770094   0.702226445755512   0.383611473179659 0
ion Sb   0.833443288670234   0.297679866250972   0.616375969191309 0
ion Sb   0.833593854370031   0.702225708908804   0.383615660662781 0
ion Se   0.000112265800751   0.246507997490420   0.530198229167924 0
ion Se   0.166899403446928   0.465920647445779   0.410202227471489 0
ion Se   0.000275245354870   0.753523417219431   0.469798643134026 0
ion Se   0.166802913694104   0.534130628652006   0.589804725140370 0
ion Se   0.333451268704121   0.246506136876042   0.530202973542590 0
ion Se   0.500238420036744   0.465824404562720   0.410163558070658 0
ion Se   0.333644793493073   0.753526466328526   0.469785656533967 0
ion Se   0.500126060610363   0.534126433801202   0.589806889854255 0
ion Se   0.666759607952906   0.246507456084950   0.530208514270474 0
ion Se   0.833574456539567   0.465817914636995   0.410165358781553 0
ion Se   0.666967126651867   0.753510102607698   0.469782815999134 0
ion Se   0.833473456346534   0.534136949652690   0.589801917393855 0
ion I   0.166394963783106   0.938578787720750   0.595818626984929 0
ion I   0.166236219327200   0.061415199005360   0.404203226916371 0
ion I   0.499734068784714   0.938580846074821   0.595821650328500 0
ion I   0.499572240781902   0.061410033579473   0.404203512457763 0
ion I   0.833056471678762   0.938582675125211   0.595822156802073 0
ion I   0.832900532689758   0.061422576790272   0.404204609680276 0
ion-species GBRV/$ID_pbe.uspp
ion-width Ecut
ionic-minimize  \
	dirUpdateScheme      L-BFGS \
	linminMethod         DirUpdateRecommended \
	nIterations          0 \
	history              15 \
	knormThreshold       0.0001 \
	energyDiffThreshold  1e-06 \
	nEnergyDiff          2 \
	alphaTstart          1 \
	alphaTmin            1e-10 \
	updateTestStepSize   yes \
	alphaTreduceFactor   0.1 \
	alphaTincreaseFactor 3 \
	nAlphaAdjustMax      3 \
	wolfeEnergy          0.0001 \
	wolfeGradient        0.9 \
	fdTest               no
kpoint   0.000000000000   0.000000000000   0.000000000000  1.00000000000000
kpoint-folding 3 3 1 
latt-move-scale 1 1 1
latt-scale 1 1 1 
lattice Triclinic 22.1353 19.893 38.8989 90 90 90
lattice-minimize  \
	dirUpdateScheme      L-BFGS \
	linminMethod         DirUpdateRecommended \
	nIterations          0 \
	history              15 \
	knormThreshold       0 \
	energyDiffThreshold  1e-06 \
	nEnergyDiff          2 \
	alphaTstart          1 \
	alphaTmin            1e-10 \
	updateTestStepSize   yes \
	alphaTreduceFactor   0.1 \
	alphaTincreaseFactor 3 \
	nAlphaAdjustMax      3 \
	wolfeEnergy          0.0001 \
	wolfeGradient        0.9 \
	fdTest               no
lcao-params -1 1e-06 0.0073499
pcm-variant CANDLE
spintype no-spin
subspace-rotation-factor 1 yes
symmetries automatic
symmetry-threshold 0.0001



---------- Setting up symmetries ----------

Found 8 point-group symmetries of the bravais lattice
Found 1 space-group symmetries with basis
Applied RMS atom displacement 0 bohrs to make symmetries exact.

---------- Initializing the Grid ----------
R = 
[    22.1353          0          0  ]
[          0     19.893          0  ]
[          0          0    38.8989  ]
unit cell volume = 17128.6
G =
[   0.283854          0          0  ]
[          0    0.31585          0  ]
[          0          0   0.161526  ]
Minimum fftbox size, Smin = [  100  92  176  ]
Chosen fftbox size, S = [  100  96  180  ]

---------- Initializing tighter grid for wavefunction operations ----------
R = 
[    22.1353          0          0  ]
[          0     19.893          0  ]
[          0          0    38.8989  ]
unit cell volume = 17128.6
G =
[   0.283854          0          0  ]
[          0    0.31585          0  ]
[          0          0   0.161526  ]
Minimum fftbox size, Smin = [  92  84  160  ]
Chosen fftbox size, S = [  96  84  160  ]

---------- Exchange Correlation functional ----------
Initalized PBE GGA exchange.
Initalized PBE GGA correlation.

---------- Setting up pseudopotentials ----------
Width of ionic core gaussian charges (only for fluid interactions / plotting) set to 0.397384

Reading pseudopotential file '/home/guoxy/vasp/jdftx-1.5.0/build/pseudopotentials/GBRV/mn_pbe.uspp':
  Title: Mn.  Created by USPP 7.3.6 on 16-6-15
  Reference state energy: -105.136484.  15 valence electrons in orbitals:
    |300>  occupation: 2  eigenvalue: -3.300080
    |310>  occupation: 6  eigenvalue: -2.150696
    |400>  occupation: 1.5  eigenvalue: -0.307943
    |320>  occupation: 5  eigenvalue: -0.391818
    |410>  occupation: 0  eigenvalue: -0.152105
  lMax: 2  lLocal: 3  QijEcut: 6
  6 projectors sampled on a log grid with 585 points:
    l: 0  eig: -3.300083  rCut: 1.45
    l: 0  eig: -0.307946  rCut: 1.45
    l: 1  eig: -2.150696  rCut: 1.45
    l: 1  eig: -0.152108  rCut: 1.45
    l: 2  eig: -0.391817  rCut: 1.7
    l: 2  eig: 0.500000  rCut: 1.7
  Partial core density with radius 0.65
  Transforming core density to a uniform radial grid of dG=0.02 with 1273 points.
  Transforming local potential to a uniform radial grid of dG=0.02 with 1273 points.
  Transforming nonlocal projectors to a uniform radial grid of dG=0.02 with 432 points.
  Transforming density augmentations to a uniform radial grid of dG=0.02 with 1273 points.
  Transforming atomic orbitals to a uniform radial grid of dG=0.02 with 432 points.
  Core radius for overlap checks: 1.70 bohrs.

Reading pseudopotential file '/home/guoxy/vasp/jdftx-1.5.0/build/pseudopotentials/GBRV/sb_pbe.uspp':
  Title: Sb.  Created by USPP 7.3.6 on 1-4-15
  Reference state energy: -92.019396.  15 valence electrons in orbitals:
    |420>  occupation: 10  eigenvalue: -1.543740
    |500>  occupation: 2  eigenvalue: -0.758471
    |510>  occupation: 2  eigenvalue: -0.440746
  lMax: 2  lLocal: 3  QijEcut: 6
  6 projectors sampled on a log grid with 721 points:
    l: 0  eig: -0.758469  rCut: 1.7
    l: 0  eig: 0.000000  rCut: 1.7
    l: 1  eig: -0.440746  rCut: 1.8
    l: 1  eig: 1.000000  rCut: 1.8
    l: 2  eig: -1.543739  rCut: 1.7
    l: 2  eig: 0.250000  rCut: 1.7
  Partial core density with radius 1.1
  Transforming core density to a uniform radial grid of dG=0.02 with 1273 points.
  Transforming local potential to a uniform radial grid of dG=0.02 with 1273 points.
  Transforming nonlocal projectors to a uniform radial grid of dG=0.02 with 432 points.
  Transforming density augmentations to a uniform radial grid of dG=0.02 with 1273 points.
  Transforming atomic orbitals to a uniform radial grid of dG=0.02 with 432 points.
  Core radius for overlap checks: 2.10 bohrs.

Reading pseudopotential file '/home/guoxy/vasp/jdftx-1.5.0/build/pseudopotentials/GBRV/se_pbe.uspp':
  Title: Se.  Created by USPP 7.3.6 on 14-9-2013
  Reference state energy: -21.672887.  6 valence electrons in orbitals:
    |400>  occupation: 2  eigenvalue: -0.635284
    |410>  occupation: 4  eigenvalue: -0.239295
  lMax: 2  lLocal: 3  QijEcut: 5
  6 projectors sampled on a log grid with 625 points:
    l: 0  eig: -0.635278  rCut: 1.5
    l: 0  eig: 0.500000  rCut: 1.5
    l: 1  eig: -0.239295  rCut: 1.5
    l: 1  eig: 0.500000  rCut: 1.5
    l: 2  eig: 0.000000  rCut: 1.8
    l: 2  eig: 1.000000  rCut: 1.8
  Partial core density with radius 1.2
  Transforming core density to a uniform radial grid of dG=0.02 with 1273 points.
  Transforming local potential to a uniform radial grid of dG=0.02 with 1273 points.
  Transforming nonlocal projectors to a uniform radial grid of dG=0.02 with 432 points.
  Transforming density augmentations to a uniform radial grid of dG=0.02 with 1273 points.
  Transforming atomic orbitals to a uniform radial grid of dG=0.02 with 432 points.
  Core radius for overlap checks: 1.80 bohrs.

Reading pseudopotential file '/home/guoxy/vasp/jdftx-1.5.0/build/pseudopotentials/GBRV/i_pbe.uspp':
  Title: I.  Created by USPP 7.3.6 on 14-9-2013
  Reference state energy: -32.770235.  7 valence electrons in orbitals:
    |500>  occupation: 2  eigenvalue: -0.639712
    |510>  occupation: 5  eigenvalue: -0.260406
  lMax: 2  lLocal: 3  QijEcut: 5
  6 projectors sampled on a log grid with 725 points:
    l: 0  eig: -0.639710  rCut: 1.9
    l: 0  eig: 0.000000  rCut: 1.9
    l: 1  eig: -0.260404  rCut: 2
    l: 1  eig: 0.000000  rCut: 2
    l: 2  eig: -0.500000  rCut: 2.45
    l: 2  eig: 0.500000  rCut: 2.45
  Partial core density with radius 1.3
  Transforming core density to a uniform radial grid of dG=0.02 with 1273 points.
  Transforming local potential to a uniform radial grid of dG=0.02 with 1273 points.
  Transforming nonlocal projectors to a uniform radial grid of dG=0.02 with 432 points.
  Transforming density augmentations to a uniform radial grid of dG=0.02 with 1273 points.
  Transforming atomic orbitals to a uniform radial grid of dG=0.02 with 432 points.
  Core radius for overlap checks: 2.45 bohrs.

Initialized 4 species with 30 total atoms.

Folded 1 k-points by 3x3x1 to 9 k-points.

---------- Setting up k-points, bands, fillings ----------
Adding inversion symmetry to k-mesh for non-inversion-symmetric unit cell.
Reduced to 5 k-points under symmetry. 
Computing the number of bands and number of electrons
Calculating initial fillings.
nElectrons: 294.000000   nBands: 204   nStates: 5

----- Setting up reduced wavefunction bases (one per k-point) -----
average nbasis = 73169.222 , ideal nbasis = 73174.690

---------- Setting up coulomb interaction ----------
Fluid mode embedding: using embedded box, but periodic Coulomb kernel.
(Fluid response is responsible for (approximate) separation between periodic images.)
Setting up double-sized grid for truncated Coulomb potentials:
R = 
[    22.1353          0          0  ]
[          0     19.893          0  ]
[          0          0    77.7978  ]
unit cell volume = 34257.2
G =
[   0.283854          0          0  ]
[          0    0.31585          0  ]
[          0          0  0.0807631  ]
Chosen fftbox size, S = [  100  96  360  ]
Integer grid location selected as the embedding center:
   Grid: [  0  0  90  ]
   Lattice: [  0  0  0.5  ]
   Cartesian: [  0  0  19.4494  ]
Constructing Wigner-Seitz cell: 6 faces (6 quadrilaterals, 0 hexagons)
Range-separation parameter for embedded mesh potentials due to point charges: 0.593544 bohrs.

Initializing van der Waals corrections
	NOTE: vdW corrections apply only for interactions with fluid.
	Mn:  C6:  187.33 Eh-a0^6  R0: 2.952 a0
	Sb:  C6:  666.75 Eh-a0^6  R0: 3.555 a0
	Se:  C6:  219.24 Eh-a0^6  R0: 3.347 a0
	 I:  C6:  546.38 Eh-a0^6  R0: 3.575 a0

---------- Setting up ewald sum ----------
Optimum gaussian width for ewald sums = 7.350335 bohr.
Real space sum over 605 unit cells with max indices [  5  5  2  ]
Reciprocal space sum over 5915 terms with max indices [  6  6  17  ]

---------- Allocating electronic variables ----------
Initializing wave functions:  linear combination of atomic orbitals
Mn pseudo-atom occupations:   s ( 2 0 )  p ( 6 0 )  d ( 7 )
Sb pseudo-atom occupations:   s ( 2 )  p ( 3 )  d ( 10 )
Se pseudo-atom occupations:   s ( 2 )  p ( 4 )
I pseudo-atom occupations:   s ( 2 )  p ( 5 )
	FillingsUpdate:  mu: -0.581194844  nElectrons: 294.000000
LCAOMinimize: Iter:   0  F: -1244.0281517450216597  |grad|_K:  2.130e-02  alpha:  1.000e+00
	FillingsUpdate:  mu: +1.650707532  nElectrons: 294.000000
LCAOMinimize: Iter:   1  F: -1251.0165971876549520  |grad|_K:  3.658e-02  alpha:  2.544e-01  linmin:  9.117e-02  cgtest: -5.055e-01  t[s]:     57.85
LCAOMinimize: 	Bad step direction: g.d > 0.
LCAOMinimize: 	Undoing step.
LCAOMinimize: 	Step failed: resetting search direction.
	FillingsUpdate:  mu: +1.650707532  nElectrons: 294.000000
LCAOMinimize: Iter:   2  F: -1251.0165971876549520  |grad|_K:  3.658e-02  alpha:  0.000e+00
	FillingsUpdate:  mu: -0.028250266  nElectrons: 294.000000
LCAOMinimize: Iter:   3  F: -1299.4056547351606241  |grad|_K:  1.037e-01  alpha:  1.189e-01  linmin:  8.559e-02  cgtest: -1.566e-02  t[s]:    106.67
LCAOMinimize: 	Bad step direction: g.d > 0.
LCAOMinimize: 	Undoing step.
LCAOMinimize: 	Step failed: resetting search direction.
	FillingsUpdate:  mu: -0.028250266  nElectrons: 294.000000
LCAOMinimize: Iter:   4  F: -1299.4056547351606241  |grad|_K:  1.037e-01  alpha:  0.000e+00
LCAOMinimize: 	Step increased F by 3.804357e+01, reducing alpha to 5.114967e-03.
	FillingsUpdate:  mu: -0.039857584  nElectrons: 294.000000
LCAOMinimize: Iter:   5  F: -1308.1033087532011905  |grad|_K:  4.607e-02  alpha:  5.115e-03  linmin: -5.054e-01  cgtest:  9.406e-01  t[s]:    149.87
LCAOMinimize: Encountered beta<0, resetting CG.
	FillingsUpdate:  mu: -0.057172035  nElectrons: 294.000000
LCAOMinimize: Iter:   6  F: -1309.9373297774279763  |grad|_K:  6.054e-03  alpha:  8.462e-03  linmin:  3.044e-01  cgtest: -3.919e-01  t[s]:    168.70
LCAOMinimize: 	Predicted alpha/alphaT>3.000000, increasing alphaT to 2.538731e-02.
LCAOMinimize: 	Predicted alpha/alphaT>3.000000, increasing alphaT to 7.616194e-02.
LCAOMinimize: 	Predicted alpha/alphaT>3.000000, increasing alphaT to 2.284858e-01.
	FillingsUpdate:  mu: -0.226629915  nElectrons: 294.000000
LCAOMinimize: Iter:   7  F: -1310.3751240010160473  |grad|_K:  9.601e-03  alpha:  4.073e-01  linmin:  6.382e-02  cgtest: -2.506e-01  t[s]:    196.72
	FillingsUpdate:  mu: -0.219611676  nElectrons: 294.000000
LCAOMinimize: Iter:   8  F: -1310.3865013509537221  |grad|_K:  7.483e-03  alpha:  7.133e-03  linmin:  1.330e-02  cgtest:  9.429e-01  t[s]:    214.69
LCAOMinimize: Encountered beta<0, resetting CG.
LCAOMinimize: 	Predicted alpha/alphaT>3.000000, increasing alphaT to 2.139944e-02.
	FillingsUpdate:  mu: -0.074545351  nElectrons: 294.000000
LCAOMinimize: Iter:   9  F: -1310.6782919182578553  |grad|_K:  4.846e-03  alpha:  4.573e-02  linmin: -5.811e-02  cgtest:  2.259e-01  t[s]:    236.95
	FillingsUpdate:  mu: -0.059312865  nElectrons: 294.000000
LCAOMinimize: Iter:  10  F: -1310.7311261392296728  |grad|_K:  4.639e-03  alpha:  1.933e-02  linmin:  3.168e-04  cgtest: -1.374e-01  t[s]:    254.74
LCAOMinimize: 	Predicted alpha/alphaT>3.000000, increasing alphaT to 5.797743e-02.
	FillingsUpdate:  mu: -0.041673288  nElectrons: 294.000000
LCAOMinimize: Iter:  11  F: -1310.9083447374591742  |grad|_K:  5.048e-03  alpha:  7.860e-02  linmin:  2.600e-04  cgtest:  5.301e-01  t[s]:    278.58
	FillingsUpdate:  mu: -0.027246434  nElectrons: 294.000000
LCAOMinimize: Iter:  12  F: -1310.9408621087789015  |grad|_K:  1.907e-03  alpha:  1.175e-02  linmin: -1.691e-02  cgtest:  6.864e-02  t[s]:    296.47
LCAOMinimize: 	Predicted alpha/alphaT>3.000000, increasing alphaT to 3.524140e-02.
	FillingsUpdate:  mu: -0.057675533  nElectrons: 294.000000
LCAOMinimize: Iter:  13  F: -1310.9560801260372500  |grad|_K:  2.217e-03  alpha:  3.916e-02  linmin:  5.185e-03  cgtest: -5.518e-02  t[s]:    319.85
	FillingsUpdate:  mu: -0.079633913  nElectrons: 294.000000
LCAOMinimize: Iter:  14  F: -1310.9622432854002909  |grad|_K:  4.952e-04  alpha:  1.174e-02  linmin: -2.512e-02  cgtest:  7.379e-01  t[s]:    338.21
LCAOMinimize: Encountered beta<0, resetting CG.
	FillingsUpdate:  mu: -0.078924320  nElectrons: 294.000000
LCAOMinimize: Iter:  15  F: -1310.9625668297003358  |grad|_K:  3.308e-04  alpha:  1.256e-02  linmin: -2.165e-04  cgtest:  5.897e-04  t[s]:    356.51
LCAOMinimize: 	Predicted alpha/alphaT>3.000000, increasing alphaT to 3.767060e-02.
	FillingsUpdate:  mu: -0.067986116  nElectrons: 294.000000
LCAOMinimize: Iter:  16  F: -1310.9637017748393646  |grad|_K:  3.714e-04  alpha:  9.782e-02  linmin: -2.235e-03  cgtest: -3.105e-03  t[s]:    379.99
	FillingsUpdate:  mu: -0.067368073  nElectrons: 294.000000
LCAOMinimize: Iter:  17  F: -1310.9641622399092284  |grad|_K:  4.842e-04  alpha:  3.105e-02  linmin: -5.461e-04  cgtest: -9.065e-03  t[s]:    397.59
	FillingsUpdate:  mu: -0.075596632  nElectrons: 294.000000
LCAOMinimize: Iter:  18  F: -1310.9658836770395283  |grad|_K:  1.184e-04  alpha:  6.984e-02  linmin:  4.854e-03  cgtest:  8.519e-02  t[s]:    415.69
	FillingsUpdate:  mu: -0.074115890  nElectrons: 294.000000
LCAOMinimize: Iter:  19  F: -1310.9661332732553092  |grad|_K:  3.444e-04  alpha:  1.710e-01  linmin:  1.208e-04  cgtest:  4.571e-04  t[s]:    433.83
	FillingsUpdate:  mu: -0.073534501  nElectrons: 294.000000
LCAOMinimize: Iter:  20  F: -1310.9663565487951473  |grad|_K:  7.067e-05  alpha:  1.739e-02  linmin: -7.062e-03  cgtest:  1.829e-01  t[s]:    451.73
	FillingsUpdate:  mu: -0.073817360  nElectrons: 294.000000
LCAOMinimize: Iter:  21  F: -1310.9663634991941308  |grad|_K:  4.272e-05  alpha:  1.320e-02  linmin:  6.251e-06  cgtest: -6.084e-03  t[s]:    470.16
LCAOMinimize: 	Predicted alpha/alphaT>3.000000, increasing alphaT to 3.960111e-02.
	FillingsUpdate:  mu: -0.074777929  nElectrons: 294.000000
LCAOMinimize: Iter:  22  F: -1310.9663713054860636  |grad|_K:  2.876e-05  alpha:  4.072e-02  linmin:  3.695e-04  cgtest:  6.439e-03  t[s]:    493.92
	FillingsUpdate:  mu: -0.074896207  nElectrons: 294.000000
LCAOMinimize: Iter:  23  F: -1310.9663724911902136  |grad|_K:  1.731e-05  alpha:  1.366e-02  linmin: -2.259e-06  cgtest:  3.230e-03  t[s]:    511.88
LCAOMinimize: 	Predicted alpha/alphaT>3.000000, increasing alphaT to 4.098646e-02.
LCAOMinimize: 	Predicted alpha/alphaT>3.000000, increasing alphaT to 1.229594e-01.
	FillingsUpdate:  mu: -0.074510807  nElectrons: 294.000000
LCAOMinimize: Iter:  24  F: -1310.9663818710250780  |grad|_K:  1.780e-05  alpha:  2.979e-01  linmin:  1.224e-04  cgtest: -9.810e-03  t[s]:    540.63
	FillingsUpdate:  mu: -0.074531587  nElectrons: 294.000000
LCAOMinimize: Iter:  25  F: -1310.9663827562137612  |grad|_K:  2.244e-05  alpha:  2.659e-02  linmin: -8.495e-05  cgtest:  1.443e-03  t[s]:    558.59
	FillingsUpdate:  mu: -0.074676066  nElectrons: 294.000000
LCAOMinimize: Iter:  26  F: -1310.9663853027425375  |grad|_K:  1.277e-05  alpha:  4.812e-02  linmin:  1.867e-04  cgtest: -1.073e-02  t[s]:    577.59
	FillingsUpdate:  mu: -0.074674744  nElectrons: 294.000000
LCAOMinimize: Iter:  27  F: -1310.9663855120054450  |grad|_K:  6.485e-06  alpha:  1.222e-02  linmin:  2.716e-05  cgtest:  3.251e-03  t[s]:    595.33
LCAOMinimize: 	Predicted alpha/alphaT>3.000000, increasing alphaT to 3.666475e-02.
LCAOMinimize: 	Predicted alpha/alphaT>3.000000, increasing alphaT to 1.099942e-01.
	FillingsUpdate:  mu: -0.074483180  nElectrons: 294.000000
LCAOMinimize: Iter:  28  F: -1310.9663862340867126  |grad|_K:  5.249e-06  alpha:  1.634e-01  linmin:  4.249e-05  cgtest: -5.450e-03  t[s]:    623.56
LCAOMinimize: Converged (|Delta F|<1.000000e-06 for 2 iters).
----- createFluidSolver() ----- (Fluid-side solver setup)
   Initializing fluid molecule 'H2O'
     Initializing site 'O'
       Electron density: proportional to exp(-r/0.36935)*erfc((r-0.51523)/0.36823) with norm 6.826
       Charge density: gaussian nuclear width 0.478731 with net site charge 0.826
       Polarizability: cuspless exponential with width 0.32 and norm 3.73
       Hard sphere radius: 2.57003 bohrs
       Positions in reference frame:
         [ +0.000000 +0.000000 +0.000000 ]
     Initializing site 'H'
       Electron density: proportional to exp(-r/0.34641)*erfc((r-0)/0.390882) with norm 0.587
       Charge density: gaussian nuclear width 0.377945 with net site charge -0.413
       Polarizability: cuspless exponential with width 0.39 and norm 3.3
       Positions in reference frame:
         [ +0.000000 -1.441945 +1.122523 ]
         [ +0.000000 +1.441945 +1.122523 ]
     Net charge: 0   dipole magnitude: 0.927204
     Initializing spherical shell mfKernel with radius 2.61727 Bohr
     deltaS corrections:
       site 'O': -7.54299
       site 'H': -6.83917
   Initializing fluid molecule 'Na+'
     Initializing site 'Na'
       Electron density: proportional to exp(-r/0.19682)*erfc((r-0.71491)/0.41314) with norm 8.1383
       Charge density: gaussian nuclear width 0.365347 with net site charge -1
       Hard sphere radius: 1.86327 bohrs
       Positions in reference frame:
         [ +0.000000 +0.000000 +0.000000 ]
     Net charge: -1   dipole magnitude: 0
     Initializing gaussian mfKernel with width: 1.55004 Bohr
     deltaS corrections:
       site 'Na': -22.3555
   Initializing fluid molecule 'F-'
     Initializing site 'F'
       Electron density: proportional to exp(-r/0.38886)*erfc((r-0)/0.438782) with norm 8
       Charge density: gaussian nuclear width 0.374796 with net site charge 1
       Hard sphere radius: 2.39995 bohrs
       Positions in reference frame:
         [ +0.000000 +0.000000 +0.000000 ]
     Net charge: 1   dipole magnitude: 0
     Initializing gaussian mfKernel with width: 1.59012 Bohr
     deltaS corrections:
       site 'F': -9.04335

Correction to mu due to finite nuclear width = -0.0085152
   Cavity determined by nc: 0.00142 and sigma: 0.707107
   Nonlocal vdW cavity from gaussian model electron density with norm = 8 and sigma = 0.993594 bohr
   Charge asymmetry in cavity with sensitivity pCavity = 36.5 e-bohr/Eh
   Electrostatic cavity expanded by eta = 1.46 bohrs
   Weighted density cavitation model constrained by Nbulk: 0.0049383 bohr^-3, Pvap: 3.14029 kPa, Rvdw: 2.61727 bohr and sigmaBulk: 4.62e-05 Eh/bohr^2 at T: 298 K.
   Weighted density dispersion model using vdW pair potentials with single solvent site with sqrtC6eff: 0.77 SI.


---- Citations for features of the code used in this run ----

   Software package:
      R. Sundararaman, K. Letchworth-Weaver, K.A. Schwarz, D. Gunceler, Y. Ozhabes and T.A. Arias, 'JDFTx: software for joint density-functional theory', SoftwareX 6, 278 (2017)

   gga-PBE exchange-correlation functional:
      J.P. Perdew, K. Burke and M. Ernzerhof, Phys. Rev. Lett. 77, 3865 (1996)

   Pseudopotentials:
      KF Garrity, JW Bennett, KM Rabe and D Vanderbilt, Comput. Mater. Sci. 81, 446 (2014)

   Truncated Coulomb potentials:
      R. Sundararaman and T.A. Arias, Phys. Rev. B 87, 165122 (2013)

   Van der Waals correction pair-potentials:
      S. Grimme, J. Comput. Chem. 27, 1787 (2006)

   Charge-asymmetric nonlocally-determined local-electric (CANDLE) solvation model:
      R. Sundararaman and W.A. Goddard III, J. Chem. Phys. 142, 064107 (2015)

This list may not be complete. Please suggest additional citations or
report any other bugs at https://github.com/shankar1729/jdftx/issues

Initialization completed successfully at t[s]:    628.21

Fluid solver invoked on fresh (partially random / LCAO) wavefunctions
Running a vacuum solve first:

-------- Initial electronic minimization -----------
Will mix electronic density at each iteration.
	FillingsUpdate:  mu: -0.074483180  nElectrons: 294.000000
	FillingsUpdate:  mu: -0.085006276  nElectrons: 294.000000
SCF: Cycle:  0   F: -1310.526821064810065   dF: +4.396e-01   |Residual|: 8.264e-01   |deigs|: 3.185e-02  t[s]:    685.42
	FillingsUpdate:  mu: -0.162584311  nElectrons: 294.000000
SCF: Cycle:  1   F: -1288.145937222455586   dF: +2.238e+01   |Residual|: 2.734e+00   |deigs|: 6.831e-02  t[s]:    729.96
	FillingsUpdate:  mu: -0.090418117  nElectrons: 294.000000
SCF: Cycle:  2   F: -1311.303020445756374   dF: -2.316e+01   |Residual|: 4.183e-01   |deigs|: 6.178e-02  t[s]:    776.32
	FillingsUpdate:  mu: -0.087999350  nElectrons: 294.000000
SCF: Cycle:  3   F: -1280.973867764441366   dF: +3.033e+01   |Residual|: 2.624e+00   |deigs|: 1.684e-02  t[s]:    822.19
	FillingsUpdate:  mu: -0.094371402  nElectrons: 294.000000
SCF: Cycle:  4   F: -1311.687867280261116   dF: -3.071e+01   |Residual|: 2.048e-01   |deigs|: 1.708e-02  t[s]:    866.64
	FillingsUpdate:  mu: -0.094137357  nElectrons: 294.000000
SCF: Cycle:  5   F: -1310.519737408932315   dF: +1.168e+00   |Residual|: 5.661e-01   |deigs|: 1.797e-03  t[s]:    913.81
	FillingsUpdate:  mu: -0.094470226  nElectrons: 294.000000
SCF: Cycle:  6   F: -1311.510852002668344   dF: -9.911e-01   |Residual|: 2.679e-01   |deigs|: 1.288e-03  t[s]:    959.25
	FillingsUpdate:  mu: -0.095615915  nElectrons: 294.000000
SCF: Cycle:  7   F: -1309.972067176407791   dF: +1.539e+00   |Residual|: 6.639e-01   |deigs|: 2.515e-03  t[s]:   1006.04
	FillingsUpdate:  mu: -0.096689545  nElectrons: 294.000000
SCF: Cycle:  8   F: -1311.779419876578459   dF: -1.807e+00   |Residual|: 5.067e-02   |deigs|: 2.484e-03  t[s]:   1050.69
	FillingsUpdate:  mu: -0.096069686  nElectrons: 294.000000
SCF: Cycle:  9   F: -1311.474757418639001   dF: +3.047e-01   |Residual|: 2.844e-01   |deigs|: 9.864e-04  t[s]:   1096.70
	FillingsUpdate:  mu: -0.095697801  nElectrons: 294.000000
SCF: Cycle: 10   F: -1311.773277209370463   dF: -2.985e-01   |Residual|: 5.482e-02   |deigs|: 9.555e-04  t[s]:   1142.17
	FillingsUpdate:  mu: -0.095233894  nElectrons: 294.000000
SCF: Cycle: 11   F: -1311.647208988127886   dF: +1.261e-01   |Residual|: 1.819e-01   |deigs|: 5.395e-04  t[s]:   1187.69
	FillingsUpdate:  mu: -0.094324167  nElectrons: 294.000000
SCF: Cycle: 12   F: -1311.780913601954808   dF: -1.337e-01   |Residual|: 3.759e-02   |deigs|: 9.134e-04  t[s]:   1232.45
	FillingsUpdate:  mu: -0.093724375  nElectrons: 294.000000
SCF: Cycle: 13   F: -1311.783740172633998   dF: -2.827e-03   |Residual|: 2.387e-02   |deigs|: 6.841e-04  t[s]:   1277.38
	FillingsUpdate:  mu: -0.092671489  nElectrons: 294.000000
SCF: Cycle: 14   F: -1311.785719264071531   dF: -1.979e-03   |Residual|: 7.605e-03   |deigs|: 9.580e-04  t[s]:   1361.53
	FillingsUpdate:  mu: -0.092125053  nElectrons: 294.000000
SCF: Cycle: 15   F: -1311.785873565426527   dF: -1.543e-04   |Residual|: 4.994e-03   |deigs|: 5.593e-04  t[s]:   1465.44
	FillingsUpdate:  mu: -0.091752967  nElectrons: 294.000000
SCF: Cycle: 16   F: -1311.785730849480160   dF: +1.427e-04   |Residual|: 7.922e-03   |deigs|: 3.857e-04  t[s]:   1572.52
	FillingsUpdate:  mu: -0.091456307  nElectrons: 294.000000
SCF: Cycle: 17   F: -1311.784944733524298   dF: +7.861e-04   |Residual|: 1.620e-02   |deigs|: 2.770e-04  t[s]:   1673.13
	FillingsUpdate:  mu: -0.090845145  nElectrons: 294.000000
SCF: Cycle: 18   F: -1311.785760454339425   dF: -8.157e-04   |Residual|: 7.819e-03   |deigs|: 5.915e-04  t[s]:   1779.18
	FillingsUpdate:  mu: -0.090204595  nElectrons: 294.000000
SCF: Cycle: 19   F: -1311.785656867690932   dF: +1.036e-04   |Residual|: 9.424e-03   |deigs|: 5.841e-04  t[s]:   1889.81
	FillingsUpdate:  mu: -0.090173275  nElectrons: 294.000000
SCF: Cycle: 20   F: -1311.785457501392784   dF: +1.994e-04   |Residual|: 1.197e-02   |deigs|: 1.534e-04  t[s]:   1991.81
	FillingsUpdate:  mu: -0.089930719  nElectrons: 294.000000
SCF: Cycle: 21   F: -1311.786002433264002   dF: -5.449e-04   |Residual|: 2.322e-03   |deigs|: 2.335e-04  t[s]:   2102.29
	FillingsUpdate:  mu: -0.089526410  nElectrons: 294.000000
SCF: Cycle: 22   F: -1311.785986389054187   dF: +1.604e-05   |Residual|: 3.242e-03   |deigs|: 3.971e-04  t[s]:   2210.90
	FillingsUpdate:  mu: -0.089200017  nElectrons: 294.000000
SCF: Cycle: 23   F: -1311.785988316873954   dF: -1.928e-06   |Residual|: 3.232e-03   |deigs|: 4.017e-04  t[s]:   2318.27
	FillingsUpdate:  mu: -0.088802616  nElectrons: 294.000000
SCF: Cycle: 24   F: -1311.785979619203317   dF: +8.698e-06   |Residual|: 3.382e-03   |deigs|: 4.901e-04  t[s]:   2426.47
	FillingsUpdate:  mu: -0.088531986  nElectrons: 294.000000
SCF: Cycle: 25   F: -1311.786023809454264   dF: -4.419e-05   |Residual|: 1.328e-03   |deigs|: 3.561e-04  t[s]:   2533.74
	FillingsUpdate:  mu: -0.088277272  nElectrons: 294.000000
SCF: Cycle: 26   F: -1311.786028541369433   dF: -4.732e-06   |Residual|: 7.250e-04   |deigs|: 3.386e-04  t[s]:   2640.80
	FillingsUpdate:  mu: -0.088044066  nElectrons: 294.000000
SCF: Cycle: 27   F: -1311.786018111724616   dF: +1.043e-05   |Residual|: 1.827e-03   |deigs|: 2.759e-04  t[s]:   2688.11
	FillingsUpdate:  mu: -0.087892735  nElectrons: 294.000000
SCF: Cycle: 28   F: -1311.785969184601072   dF: +4.893e-05   |Residual|: 3.905e-03   |deigs|: 1.863e-04  t[s]:   2732.25
	FillingsUpdate:  mu: -0.087706738  nElectrons: 294.000000
SCF: Cycle: 29   F: -1311.786028714254371   dF: -5.953e-05   |Residual|: 9.245e-04   |deigs|: 2.325e-04  t[s]:   2776.52
	FillingsUpdate:  mu: -0.087530258  nElectrons: 294.000000
SCF: Cycle: 30   F: -1311.786026961398875   dF: +1.753e-06   |Residual|: 1.174e-03   |deigs|: 1.969e-04  t[s]:   2820.03
	FillingsUpdate:  mu: -0.087350325  nElectrons: 294.000000
SCF: Cycle: 31   F: -1311.786031970448676   dF: -5.009e-06   |Residual|: 4.674e-04   |deigs|: 2.453e-04  t[s]:   2864.71
	FillingsUpdate:  mu: -0.087190160  nElectrons: 294.000000
SCF: Cycle: 32   F: -1311.786031174339769   dF: +7.961e-07   |Residual|: 6.712e-04   |deigs|: 2.153e-04  t[s]:   2907.10
	FillingsUpdate:  mu: -0.087153476  nElectrons: 294.000000
SCF: Cycle: 33   F: -1311.786031300308196   dF: -1.260e-07   |Residual|: 6.645e-04   |deigs|: 1.132e-04  t[s]:   2951.21
	FillingsUpdate:  mu: -0.087095754  nElectrons: 294.000000
SCF: Cycle: 34   F: -1311.786031700321246   dF: -4.000e-07   |Residual|: 6.198e-04   |deigs|: 8.750e-05  t[s]:   2996.63
	FillingsUpdate:  mu: -0.087059522  nElectrons: 294.000000
SCF: Cycle: 35   F: -1311.786032864711387   dF: -1.164e-06   |Residual|: 2.816e-04   |deigs|: 9.094e-05  t[s]:   3041.02
	FillingsUpdate:  mu: -0.087076732  nElectrons: 294.000000
SCF: Cycle: 36   F: -1311.786031188606103   dF: +1.676e-06   |Residual|: 6.824e-04   |deigs|: 2.189e-05  t[s]:   3082.22
	FillingsUpdate:  mu: -0.087038136  nElectrons: 294.000000
SCF: Cycle: 37   F: -1311.786032836248069   dF: -1.648e-06   |Residual|: 2.873e-04   |deigs|: 1.075e-04  t[s]:   3123.62
	FillingsUpdate:  mu: -0.087038637  nElectrons: 294.000000
SCF: Cycle: 38   F: -1311.786032953872336   dF: -1.176e-07   |Residual|: 2.493e-04   |deigs|: 1.884e-05  t[s]:   3165.26
	FillingsUpdate:  mu: -0.087036777  nElectrons: 294.000000
SCF: Cycle: 39   F: -1311.786033083102211   dF: -1.292e-07   |Residual|: 1.635e-04   |deigs|: 3.674e-05  t[s]:   3210.49
	FillingsUpdate:  mu: -0.087021251  nElectrons: 294.000000
SCF: Cycle: 40   F: -1311.786032614654914   dF: +4.684e-07   |Residual|: 3.811e-04   |deigs|: 3.090e-05  t[s]:   3253.47
	FillingsUpdate:  mu: -0.087025563  nElectrons: 294.000000
SCF: Cycle: 41   F: -1311.786033167100186   dF: -5.524e-07   |Residual|: 9.479e-05   |deigs|: 3.775e-05  t[s]:   3295.18
	FillingsUpdate:  mu: -0.087020192  nElectrons: 294.000000
SCF: Cycle: 42   F: -1311.786033196628750   dF: -2.953e-08   |Residual|: 4.611e-05   |deigs|: 2.826e-05  t[s]:   3337.10
	FillingsUpdate:  mu: -0.087015598  nElectrons: 294.000000
SCF: Cycle: 43   F: -1311.786033203434727   dF: -6.806e-09   |Residual|: 3.308e-05   |deigs|: 1.325e-05  t[s]:   3378.08
	FillingsUpdate:  mu: -0.087012526  nElectrons: 294.000000
SCF: Cycle: 44   F: -1311.786033207104538   dF: -3.670e-09   |Residual|: 3.222e-05   |deigs|: 2.649e-05  t[s]:   3418.79
SCF: Converged (|Delta E|<1.000000e-08 for 2 iters).

Vacuum energy after initial minimize, F = -1311.786033207104538

	FillingsUpdate:  mu: -0.087012526  nElectrons: 294.000000
	Linear fluid (dielectric constant: 78.4, screening length: 5.74355 Bohr) occupying 0.755372 of unit cell:	Completed after 21 iterations at t[s]:   3426.92

-------- Electronic minimization -----------
Will mix electronic density at each iteration.
	FillingsUpdate:  mu: -0.087012526  nElectrons: 294.000000
	Linear fluid (dielectric constant: 78.4, screening length: 5.74355 Bohr) occupying 0.755372 of unit cell:	Completed after 0 iterations at t[s]:   3432.67
	FillingsUpdate:  mu: -0.153736693  nElectrons: 294.000000
	Linear fluid (dielectric constant: 78.4, screening length: 5.74355 Bohr) occupying 0.757658 of unit cell:	Completed after 19 iterations at t[s]:   3487.61
SCF: Cycle:  0   F: -1311.762750290404938   dF: +1.848e-02   |Residual|: 6.585e-02   |deigs|: 2.800e-04  t[s]:   3488.51
	Linear fluid (dielectric constant: 78.4, screening length: 5.74355 Bohr) occupying 0.754698 of unit cell:	Completed after 18 iterations at t[s]:   3490.75
	FillingsUpdate:  mu: -0.144071208  nElectrons: 294.000000
	Linear fluid (dielectric constant: 78.4, screening length: 5.74355 Bohr) occupying 0.757959 of unit cell:	Completed after 21 iterations at t[s]:   3538.14
SCF: Cycle:  1   F: -1309.580135722615523   dF: +2.183e+00   |Residual|: 7.106e-01   |deigs|: 6.889e-03  t[s]:   3538.99
	Linear fluid (dielectric constant: 78.4, screening length: 5.74355 Bohr) occupying 0.754742 of unit cell:	Completed after 20 iterations at t[s]:   3541.33
	FillingsUpdate:  mu: -0.145881236  nElectrons: 294.000000
	Linear fluid (dielectric constant: 78.4, screening length: 5.74355 Bohr) occupying 0.756817 of unit cell:	Completed after 20 iterations at t[s]:   3590.09
SCF: Cycle:  2   F: -1311.311949640811008   dF: -1.732e+00   |Residual|: 3.350e-01   |deigs|: 2.390e-03  t[s]:   3591.05
	Linear fluid (dielectric constant: 78.4, screening length: 5.74355 Bohr) occupying 0.754860 of unit cell:	Completed after 19 iterations at t[s]:   3593.38
	FillingsUpdate:  mu: -0.152174293  nElectrons: 294.000000
	Linear fluid (dielectric constant: 78.4, screening length: 5.74355 Bohr) occupying 0.757184 of unit cell:	Completed after 18 iterations at t[s]:   3640.79
SCF: Cycle:  3   F: -1311.779952863209701   dF: -4.680e-01   |Residual|: 3.289e-02   |deigs|: 3.941e-03  t[s]:   3641.80
	Linear fluid (dielectric constant: 78.4, screening length: 5.74355 Bohr) occupying 0.754756 of unit cell:	Completed after 17 iterations at t[s]:   3643.88
	FillingsUpdate:  mu: -0.150835601  nElectrons: 294.000000
	Linear fluid (dielectric constant: 78.4, screening length: 5.74355 Bohr) occupying 0.757198 of unit cell:	Completed after 20 iterations at t[s]:   3692.24
SCF: Cycle:  4   F: -1311.348285764536058   dF: +4.317e-01   |Residual|: 3.322e-01   |deigs|: 1.207e-03  t[s]:   3693.23
	Linear fluid (dielectric constant: 78.4, screening length: 5.74355 Bohr) occupying 0.754723 of unit cell:	Completed after 20 iterations at t[s]:   3695.53
	FillingsUpdate:  mu: -0.150576794  nElectrons: 294.000000
	Linear fluid (dielectric constant: 78.4, screening length: 5.74355 Bohr) occupying 0.757003 of unit cell:	Completed after 18 iterations at t[s]:   3742.07
SCF: Cycle:  5   F: -1311.780617001559904   dF: -4.323e-01   |Residual|: 3.194e-02   |deigs|: 9.511e-04  t[s]:   3743.14
	Linear fluid (dielectric constant: 78.4, screening length: 5.74355 Bohr) occupying 0.754730 of unit cell:	Completed after 17 iterations at t[s]:   3745.29
	FillingsUpdate:  mu: -0.150502767  nElectrons: 294.000000
	Linear fluid (dielectric constant: 78.4, screening length: 5.74355 Bohr) occupying 0.757024 of unit cell:	Completed after 18 iterations at t[s]:   3792.89
SCF: Cycle:  6   F: -1311.753680384049858   dF: +2.694e-02   |Residual|: 8.674e-02   |deigs|: 2.259e-04  t[s]:   3793.87
	Linear fluid (dielectric constant: 78.4, screening length: 5.74355 Bohr) occupying 0.754774 of unit cell:	Completed after 18 iterations at t[s]:   3795.99
	FillingsUpdate:  mu: -0.150149172  nElectrons: 294.000000
	Linear fluid (dielectric constant: 78.4, screening length: 5.74355 Bohr) occupying 0.757005 of unit cell:	Completed after 18 iterations at t[s]:   3843.76
SCF: Cycle:  7   F: -1311.777292172045918   dF: -2.361e-02   |Residual|: 4.395e-02   |deigs|: 4.266e-04  t[s]:   3844.74
	Linear fluid (dielectric constant: 78.4, screening length: 5.74355 Bohr) occupying 0.754784 of unit cell:	Completed after 18 iterations at t[s]:   3846.82
	FillingsUpdate:  mu: -0.150109797  nElectrons: 294.000000
	Linear fluid (dielectric constant: 78.4, screening length: 5.74355 Bohr) occupying 0.757005 of unit cell:	Completed after 15 iterations at t[s]:   3894.25
SCF: Cycle:  8   F: -1311.783021900455196   dF: -5.730e-03   |Residual|: 2.182e-02   |deigs|: 9.106e-05  t[s]:   3895.11
	Linear fluid (dielectric constant: 78.4, screening length: 5.74355 Bohr) occupying 0.755006 of unit cell:	Completed after 15 iterations at t[s]:   3897.02
	FillingsUpdate:  mu: -0.149323544  nElectrons: 294.000000
	Linear fluid (dielectric constant: 78.4, screening length: 5.74355 Bohr) occupying 0.757025 of unit cell:	Completed after 14 iterations at t[s]:   3944.80
SCF: Cycle:  9   F: -1311.784734752195391   dF: -1.713e-03   |Residual|: 7.012e-03   |deigs|: 7.199e-04  t[s]:   3945.89
	Linear fluid (dielectric constant: 78.4, screening length: 5.74355 Bohr) occupying 0.755339 of unit cell:	Completed after 12 iterations at t[s]:   3947.54
	FillingsUpdate:  mu: -0.148698191  nElectrons: 294.000000
	Linear fluid (dielectric constant: 78.4, screening length: 5.74355 Bohr) occupying 0.757046 of unit cell:	Completed after 16 iterations at t[s]:   3995.67
SCF: Cycle: 10   F: -1311.779714585259626   dF: +5.020e-03   |Residual|: 3.612e-02   |deigs|: 5.633e-04  t[s]:   3996.60
	Linear fluid (dielectric constant: 78.4, screening length: 5.74355 Bohr) occupying 0.755429 of unit cell:	Completed after 16 iterations at t[s]:   3998.67
	FillingsUpdate:  mu: -0.148520643  nElectrons: 294.000000
	Linear fluid (dielectric constant: 78.4, screening length: 5.74355 Bohr) occupying 0.757048 of unit cell:	Completed after 13 iterations at t[s]:   4058.05
SCF: Cycle: 11   F: -1311.784835194484685   dF: -5.121e-03   |Residual|: 5.367e-03   |deigs|: 2.133e-04  t[s]:   4059.16
	Linear fluid (dielectric constant: 78.4, screening length: 5.74355 Bohr) occupying 0.756030 of unit cell:	Completed after 13 iterations at t[s]:   4061.05
	FillingsUpdate:  mu: -0.147815361  nElectrons: 294.000000
	Linear fluid (dielectric constant: 78.4, screening length: 5.74355 Bohr) occupying 0.757067 of unit cell:	Completed after 14 iterations at t[s]:   4107.89
SCF: Cycle: 12   F: -1311.784857193885728   dF: -2.200e-05   |Residual|: 5.265e-03   |deigs|: 6.362e-04  t[s]:   4108.82
	Linear fluid (dielectric constant: 78.4, screening length: 5.74355 Bohr) occupying 0.756453 of unit cell:	Completed after 12 iterations at t[s]:   4110.60
	FillingsUpdate:  mu: -0.147411161  nElectrons: 294.000000
	Linear fluid (dielectric constant: 78.4, screening length: 5.74355 Bohr) occupying 0.757065 of unit cell:	Completed after 14 iterations at t[s]:   4173.56
SCF: Cycle: 13   F: -1311.784409712071010   dF: +4.475e-04   |Residual|: 1.159e-02   |deigs|: 3.727e-04  t[s]:   4174.46
	Linear fluid (dielectric constant: 78.4, screening length: 5.74355 Bohr) occupying 0.756532 of unit cell:	Completed after 14 iterations at t[s]:   4176.33
	FillingsUpdate:  mu: -0.147567104  nElectrons: 294.000000
	Linear fluid (dielectric constant: 78.4, screening length: 5.74355 Bohr) occupying 0.757073 of unit cell:	Completed after 12 iterations at t[s]:   4223.29
SCF: Cycle: 14   F: -1311.784876344746408   dF: -4.666e-04   |Residual|: 4.824e-03   |deigs|: 1.238e-04  t[s]:   4224.13
	Linear fluid (dielectric constant: 78.4, screening length: 5.74355 Bohr) occupying 0.756854 of unit cell:	Completed after 12 iterations at t[s]:   4225.72
	FillingsUpdate:  mu: -0.147082549  nElectrons: 294.000000
	Linear fluid (dielectric constant: 78.4, screening length: 5.74355 Bohr) occupying 0.757056 of unit cell:	Completed after 12 iterations at t[s]:   4273.33
SCF: Cycle: 15   F: -1311.784877853688386   dF: -1.509e-06   |Residual|: 5.110e-03   |deigs|: 3.632e-04  t[s]:   4274.25
	Linear fluid (dielectric constant: 78.4, screening length: 5.74355 Bohr) occupying 0.757109 of unit cell:	Completed after 8 iterations at t[s]:   4275.63
	FillingsUpdate:  mu: -0.146977400  nElectrons: 294.000000
	Linear fluid (dielectric constant: 78.4, screening length: 5.74355 Bohr) occupying 0.757047 of unit cell:	Completed after 9 iterations at t[s]:   4324.15
SCF: Cycle: 16   F: -1311.784958087339646   dF: -8.023e-05   |Residual|: 2.385e-03   |deigs|: 1.508e-04  t[s]:   4325.25
	Linear fluid (dielectric constant: 78.4, screening length: 5.74355 Bohr) occupying 0.757114 of unit cell:	Completed after 9 iterations at t[s]:   4326.72
	FillingsUpdate:  mu: -0.147168950  nElectrons: 294.000000
	Linear fluid (dielectric constant: 78.4, screening length: 5.74355 Bohr) occupying 0.757045 of unit cell:	Completed after 10 iterations at t[s]:   4373.71
SCF: Cycle: 17   F: -1311.784758516728971   dF: +1.996e-04   |Residual|: 7.435e-03   |deigs|: 1.511e-04  t[s]:   4374.55
	Linear fluid (dielectric constant: 78.4, screening length: 5.74355 Bohr) occupying 0.757223 of unit cell:	Completed after 10 iterations at t[s]:   4376.03
	FillingsUpdate:  mu: -0.147031836  nElectrons: 294.000000
	Linear fluid (dielectric constant: 78.4, screening length: 5.74355 Bohr) occupying 0.757037 of unit cell:	Completed after 9 iterations at t[s]:   4424.75
SCF: Cycle: 18   F: -1311.784948589762735   dF: -1.901e-04   |Residual|: 2.754e-03   |deigs|: 1.128e-04  t[s]:   4425.78
	Linear fluid (dielectric constant: 78.4, screening length: 5.74355 Bohr) occupying 0.757257 of unit cell:	Completed after 9 iterations at t[s]:   4427.25
	FillingsUpdate:  mu: -0.147046994  nElectrons: 294.000000
	Linear fluid (dielectric constant: 78.4, screening length: 5.74355 Bohr) occupying 0.757031 of unit cell:	Completed after 8 iterations at t[s]:   4475.93
SCF: Cycle: 19   F: -1311.784969801175066   dF: -2.121e-05   |Residual|: 1.661e-03   |deigs|: 3.922e-05  t[s]:   4477.05
	Linear fluid (dielectric constant: 78.4, screening length: 5.74355 Bohr) occupying 0.757252 of unit cell:	Completed after 9 iterations at t[s]:   4478.53
	FillingsUpdate:  mu: -0.147069553  nElectrons: 294.000000
	Linear fluid (dielectric constant: 78.4, screening length: 5.74355 Bohr) occupying 0.757024 of unit cell:	Completed after 8 iterations at t[s]:   4528.14
SCF: Cycle: 20   F: -1311.784975734657337   dF: -5.933e-06   |Residual|: 1.367e-03   |deigs|: 6.660e-05  t[s]:   4529.08
	Linear fluid (dielectric constant: 78.4, screening length: 5.74355 Bohr) occupying 0.757215 of unit cell:	Completed after 9 iterations at t[s]:   4530.52
	FillingsUpdate:  mu: -0.147109083  nElectrons: 294.000000
	Linear fluid (dielectric constant: 78.4, screening length: 5.74355 Bohr) occupying 0.757020 of unit cell:	Completed after 8 iterations at t[s]:   4591.14
SCF: Cycle: 21   F: -1311.784955055281671   dF: +2.068e-05   |Residual|: 2.371e-03   |deigs|: 9.726e-05  t[s]:   4592.05
	Linear fluid (dielectric constant: 78.4, screening length: 5.74355 Bohr) occupying 0.757188 of unit cell:	Completed after 8 iterations at t[s]:   4593.99
	FillingsUpdate:  mu: -0.147094845  nElectrons: 294.000000
	Linear fluid (dielectric constant: 78.4, screening length: 5.74355 Bohr) occupying 0.757013 of unit cell:	Completed after 5 iterations at t[s]:   4641.72
SCF: Cycle: 22   F: -1311.784981752321073   dF: -2.670e-05   |Residual|: 7.731e-04   |deigs|: 1.083e-04  t[s]:   4642.69
	Linear fluid (dielectric constant: 78.4, screening length: 5.74355 Bohr) occupying 0.757131 of unit cell:	Completed after 5 iterations at t[s]:   4643.73
	FillingsUpdate:  mu: -0.147099702  nElectrons: 294.000000
	Linear fluid (dielectric constant: 78.4, screening length: 5.74355 Bohr) occupying 0.757007 of unit cell:	Completed after 7 iterations at t[s]:   4691.04
SCF: Cycle: 23   F: -1311.784960962985906   dF: +2.079e-05   |Residual|: 2.213e-03   |deigs|: 1.273e-04  t[s]:   4692.04
	Linear fluid (dielectric constant: 78.4, screening length: 5.74355 Bohr) occupying 0.757087 of unit cell:	Completed after 7 iterations at t[s]:   4693.28
	FillingsUpdate:  mu: -0.147156607  nElectrons: 294.000000
	Linear fluid (dielectric constant: 78.4, screening length: 5.74355 Bohr) occupying 0.757010 of unit cell:	Completed after 7 iterations at t[s]:   4739.77
SCF: Cycle: 24   F: -1311.784979851474191   dF: -1.889e-05   |Residual|: 9.487e-04   |deigs|: 1.613e-04  t[s]:   4740.70
	Linear fluid (dielectric constant: 78.4, screening length: 5.74355 Bohr) occupying 0.757022 of unit cell:	Completed after 7 iterations at t[s]:   4741.90
	FillingsUpdate:  mu: -0.147194330  nElectrons: 294.000000
	Linear fluid (dielectric constant: 78.4, screening length: 5.74355 Bohr) occupying 0.757007 of unit cell:	Completed after 7 iterations at t[s]:   4789.33
SCF: Cycle: 25   F: -1311.784959399361696   dF: +2.045e-05   |Residual|: 2.463e-03   |deigs|: 1.375e-04  t[s]:   4790.43
	Linear fluid (dielectric constant: 78.4, screening length: 5.74355 Bohr) occupying 0.757071 of unit cell:	Completed after 7 iterations at t[s]:   4791.90
	FillingsUpdate:  mu: -0.147131221  nElectrons: 294.000000
	Linear fluid (dielectric constant: 78.4, screening length: 5.74355 Bohr) occupying 0.757006 of unit cell:	Completed after 4 iterations at t[s]:   4836.43
SCF: Cycle: 26   F: -1311.784977288557229   dF: -1.789e-05   |Residual|: 1.257e-03   |deigs|: 6.288e-05  t[s]:   4837.39
	Linear fluid (dielectric constant: 78.4, screening length: 5.74355 Bohr) occupying 0.757065 of unit cell:	Completed after 4 iterations at t[s]:   4838.45
	FillingsUpdate:  mu: -0.147109631  nElectrons: 294.000000
	Linear fluid (dielectric constant: 78.4, screening length: 5.74355 Bohr) occupying 0.757003 of unit cell:	Completed after 6 iterations at t[s]:   4884.83
SCF: Cycle: 27   F: -1311.784975959408484   dF: +1.329e-06   |Residual|: 1.294e-03   |deigs|: 6.054e-05  t[s]:   4885.74
	Linear fluid (dielectric constant: 78.4, screening length: 5.74355 Bohr) occupying 0.757017 of unit cell:	Completed after 7 iterations at t[s]:   4886.97
	FillingsUpdate:  mu: -0.147155988  nElectrons: 294.000000
	Linear fluid (dielectric constant: 78.4, screening length: 5.74355 Bohr) occupying 0.757002 of unit cell:	Completed after 6 iterations at t[s]:   4935.51
SCF: Cycle: 28   F: -1311.784973359760670   dF: +2.600e-06   |Residual|: 1.498e-03   |deigs|: 1.123e-04  t[s]:   4936.48
	Linear fluid (dielectric constant: 78.4, screening length: 5.74355 Bohr) occupying 0.757000 of unit cell:	Completed after 6 iterations at t[s]:   4937.61
	FillingsUpdate:  mu: -0.147139847  nElectrons: 294.000000
	Linear fluid (dielectric constant: 78.4, screening length: 5.74355 Bohr) occupying 0.756998 of unit cell:	Completed after 7 iterations at t[s]:   4984.01
SCF: Cycle: 29   F: -1311.784952909466256   dF: +2.045e-05   |Residual|: 2.597e-03   |deigs|: 6.662e-05  t[s]:   4984.84
	Linear fluid (dielectric constant: 78.4, screening length: 5.74355 Bohr) occupying 0.756976 of unit cell:	Completed after 7 iterations at t[s]:   4986.20
	FillingsUpdate:  mu: -0.147145618  nElectrons: 294.000000
	Linear fluid (dielectric constant: 78.4, screening length: 5.74355 Bohr) occupying 0.756995 of unit cell:	Completed after 4 iterations at t[s]:   5031.02
SCF: Cycle: 30   F: -1311.784977420817086   dF: -2.451e-05   |Residual|: 1.284e-03   |deigs|: 1.184e-04  t[s]:   5031.88
	Linear fluid (dielectric constant: 78.4, screening length: 5.74355 Bohr) occupying 0.756965 of unit cell:	Completed after 3 iterations at t[s]:   5032.71
	FillingsUpdate:  mu: -0.147118023  nElectrons: 294.000000
	Linear fluid (dielectric constant: 78.4, screening length: 5.74355 Bohr) occupying 0.756990 of unit cell:	Completed after 5 iterations at t[s]:   5078.64
SCF: Cycle: 31   F: -1311.784958863330985   dF: +1.856e-05   |Residual|: 2.335e-03   |deigs|: 1.090e-04  t[s]:   5079.66
	Linear fluid (dielectric constant: 78.4, screening length: 5.74355 Bohr) occupying 0.756956 of unit cell:	Completed after 6 iterations at t[s]:   5080.93
	FillingsUpdate:  mu: -0.147125793  nElectrons: 294.000000
	Linear fluid (dielectric constant: 78.4, screening length: 5.74355 Bohr) occupying 0.756989 of unit cell:	Completed after 5 iterations at t[s]:   5126.07
SCF: Cycle: 32   F: -1311.784974959579131   dF: -1.610e-05   |Residual|: 1.411e-03   |deigs|: 1.459e-04  t[s]:   5127.09
	Linear fluid (dielectric constant: 78.4, screening length: 5.74355 Bohr) occupying 0.756948 of unit cell:	Completed after 4 iterations at t[s]:   5128.08
	FillingsUpdate:  mu: -0.147104651  nElectrons: 294.000000
	Linear fluid (dielectric constant: 78.4, screening length: 5.74355 Bohr) occupying 0.756985 of unit cell:	Completed after 3 iterations at t[s]:   5173.62
SCF: Cycle: 33   F: -1311.784981729642595   dF: -6.770e-06   |Residual|: 6.804e-04   |deigs|: 1.121e-04  t[s]:   5174.64
	Linear fluid (dielectric constant: 78.4, screening length: 5.74355 Bohr) occupying 0.756960 of unit cell:	Completed after 3 iterations at t[s]:   5175.69
	FillingsUpdate:  mu: -0.147104304  nElectrons: 294.000000
	Linear fluid (dielectric constant: 78.4, screening length: 5.74355 Bohr) occupying 0.756985 of unit cell:	Completed after 4 iterations at t[s]:   5223.59
SCF: Cycle: 34   F: -1311.784977049554527   dF: +4.680e-06   |Residual|: 1.139e-03   |deigs|: 8.152e-05  t[s]:   5224.63
	Linear fluid (dielectric constant: 78.4, screening length: 5.74355 Bohr) occupying 0.756954 of unit cell:	Completed after 4 iterations at t[s]:   5225.70
	FillingsUpdate:  mu: -0.147102141  nElectrons: 294.000000
	Linear fluid (dielectric constant: 78.4, screening length: 5.74355 Bohr) occupying 0.756985 of unit cell:	Completed after 3 iterations at t[s]:   5273.03
SCF: Cycle: 35   F: -1311.784978828684189   dF: -1.779e-06   |Residual|: 1.125e-03   |deigs|: 4.261e-05  t[s]:   5273.85
	Linear fluid (dielectric constant: 78.4, screening length: 5.74355 Bohr) occupying 0.756954 of unit cell:	Completed after 3 iterations at t[s]:   5274.73
	FillingsUpdate:  mu: -0.147094980  nElectrons: 294.000000
	Linear fluid (dielectric constant: 78.4, screening length: 5.74355 Bohr) occupying 0.756984 of unit cell:	Completed after 6 iterations at t[s]:   5324.12
SCF: Cycle: 36   F: -1311.784964221666542   dF: +1.461e-05   |Residual|: 2.020e-03   |deigs|: 2.258e-05  t[s]:   5325.14
	Linear fluid (dielectric constant: 78.4, screening length: 5.74355 Bohr) occupying 0.756960 of unit cell:	Completed after 6 iterations at t[s]:   5326.36
	FillingsUpdate:  mu: -0.147107331  nElectrons: 294.000000
	Linear fluid (dielectric constant: 78.4, screening length: 5.74355 Bohr) occupying 0.756986 of unit cell:	Completed after 3 iterations at t[s]:   5369.84
SCF: Cycle: 37   F: -1311.784982541623549   dF: -1.832e-05   |Residual|: 6.753e-04   |deigs|: 5.437e-05  t[s]:   5370.88
	Linear fluid (dielectric constant: 78.4, screening length: 5.74355 Bohr) occupying 0.756952 of unit cell:	Completed after 3 iterations at t[s]:   5371.77
	FillingsUpdate:  mu: -0.147096137  nElectrons: 294.000000
	Linear fluid (dielectric constant: 78.4, screening length: 5.74355 Bohr) occupying 0.756983 of unit cell:	Completed after 3 iterations at t[s]:   5416.79
SCF: Cycle: 38   F: -1311.784977391296934   dF: +5.150e-06   |Residual|: 1.279e-03   |deigs|: 1.010e-04  t[s]:   5417.80
	Linear fluid (dielectric constant: 78.4, screening length: 5.74355 Bohr) occupying 0.756959 of unit cell:	Completed after 3 iterations at t[s]:   5418.66
	FillingsUpdate:  mu: -0.147106245  nElectrons: 294.000000
	Linear fluid (dielectric constant: 78.4, screening length: 5.74355 Bohr) occupying 0.756986 of unit cell:	Completed after 6 iterations at t[s]:   5466.13
SCF: Cycle: 39   F: -1311.784961548856927   dF: +1.584e-05   |Residual|: 2.118e-03   |deigs|: 7.989e-05  t[s]:   5466.97
	Linear fluid (dielectric constant: 78.4, screening length: 5.74355 Bohr) occupying 0.756957 of unit cell:	Completed after 5 iterations at t[s]:   5467.97
	FillingsUpdate:  mu: -0.147105792  nElectrons: 294.000000
	Linear fluid (dielectric constant: 78.4, screening length: 5.74355 Bohr) occupying 0.756985 of unit cell:	Completed after 3 iterations at t[s]:   5502.05
SCF: Cycle: 40   F: -1311.784978110808197   dF: -1.656e-05   |Residual|: 1.182e-03   |deigs|: 2.160e-05  t[s]:   5502.95
	Linear fluid (dielectric constant: 78.4, screening length: 5.74355 Bohr) occupying 0.756962 of unit cell:	Completed after 3 iterations at t[s]:   5503.87
	FillingsUpdate:  mu: -0.147104271  nElectrons: 294.000000
	Linear fluid (dielectric constant: 78.4, screening length: 5.74355 Bohr) occupying 0.756985 of unit cell:	Completed after 3 iterations at t[s]:   5550.36
SCF: Cycle: 41   F: -1311.784980519654027   dF: -2.409e-06   |Residual|: 9.887e-04   |deigs|: 5.672e-05  t[s]:   5551.37
	Linear fluid (dielectric constant: 78.4, screening length: 5.74355 Bohr) occupying 0.756968 of unit cell:	Completed after 3 iterations at t[s]:   5552.26
	FillingsUpdate:  mu: -0.147106471  nElectrons: 294.000000
	Linear fluid (dielectric constant: 78.4, screening length: 5.74355 Bohr) occupying 0.756986 of unit cell:	Completed after 6 iterations at t[s]:   5600.46
SCF: Cycle: 42   F: -1311.784964399667160   dF: +1.612e-05   |Residual|: 2.063e-03   |deigs|: 2.072e-05  t[s]:   5601.45
	Linear fluid (dielectric constant: 78.4, screening length: 5.74355 Bohr) occupying 0.756976 of unit cell:	Completed after 5 iterations at t[s]:   5602.72
	FillingsUpdate:  mu: -0.147105330  nElectrons: 294.000000
	Linear fluid (dielectric constant: 78.4, screening length: 5.74355 Bohr) occupying 0.756987 of unit cell:	Completed after 4 iterations at t[s]:   5646.96
SCF: Cycle: 43   F: -1311.784977070658670   dF: -1.267e-05   |Residual|: 1.285e-03   |deigs|: 2.104e-05  t[s]:   5647.94
	Linear fluid (dielectric constant: 78.4, screening length: 5.74355 Bohr) occupying 0.756976 of unit cell:	Completed after 4 iterations at t[s]:   5648.97
	FillingsUpdate:  mu: -0.147089286  nElectrons: 294.000000
	Linear fluid (dielectric constant: 78.4, screening length: 5.74355 Bohr) occupying 0.756985 of unit cell:	Completed after 3 iterations at t[s]:   5695.37
SCF: Cycle: 44   F: -1311.784976525241518   dF: +5.454e-07   |Residual|: 1.468e-03   |deigs|: 4.643e-05  t[s]:   5696.28
	Linear fluid (dielectric constant: 78.4, screening length: 5.74355 Bohr) occupying 0.756982 of unit cell:	Completed after 3 iterations at t[s]:   5697.28
	FillingsUpdate:  mu: -0.147088940  nElectrons: 294.000000
	Linear fluid (dielectric constant: 78.4, screening length: 5.74355 Bohr) occupying 0.756986 of unit cell:	Completed after 6 iterations at t[s]:   5744.76
SCF: Cycle: 45   F: -1311.784957167835501   dF: +1.936e-05   |Residual|: 2.279e-03   |deigs|: 1.746e-05  t[s]:   5745.69
	Linear fluid (dielectric constant: 78.4, screening length: 5.74355 Bohr) occupying 0.756979 of unit cell:	Completed after 6 iterations at t[s]:   5746.84
	FillingsUpdate:  mu: -0.147086880  nElectrons: 294.000000
	Linear fluid (dielectric constant: 78.4, screening length: 5.74355 Bohr) occupying 0.756985 of unit cell:	Completed after 3 iterations at t[s]:   5791.27
SCF: Cycle: 46   F: -1311.784979672695499   dF: -2.250e-05   |Residual|: 1.035e-03   |deigs|: 3.184e-05  t[s]:   5792.05
	Linear fluid (dielectric constant: 78.4, screening length: 5.74355 Bohr) occupying 0.756979 of unit cell:	Completed after 3 iterations at t[s]:   5793.00
	FillingsUpdate:  mu: -0.147090536  nElectrons: 294.000000
	Linear fluid (dielectric constant: 78.4, screening length: 5.74355 Bohr) occupying 0.756985 of unit cell:	Completed after 3 iterations at t[s]:   5835.43
SCF: Cycle: 47   F: -1311.784977405736299   dF: +2.267e-06   |Residual|: 1.348e-03   |deigs|: 3.143e-05  t[s]:   5836.16
	Linear fluid (dielectric constant: 78.4, screening length: 5.74355 Bohr) occupying 0.756989 of unit cell:	Completed after 3 iterations at t[s]:   5836.97
	FillingsUpdate:  mu: -0.147090962  nElectrons: 294.000000
	Linear fluid (dielectric constant: 78.4, screening length: 5.74355 Bohr) occupying 0.756986 of unit cell:	Completed after 6 iterations at t[s]:   5883.02
SCF: Cycle: 48   F: -1311.784966499988514   dF: +1.091e-05   |Residual|: 1.855e-03   |deigs|: 5.894e-05  t[s]:   5883.79
	Linear fluid (dielectric constant: 78.4, screening length: 5.74355 Bohr) occupying 0.756982 of unit cell:	Completed after 6 iterations at t[s]:   5884.87
	FillingsUpdate:  mu: -0.147092376  nElectrons: 294.000000
	Linear fluid (dielectric constant: 78.4, screening length: 5.74355 Bohr) occupying 0.756986 of unit cell:	Completed after 3 iterations at t[s]:   5928.01
SCF: Cycle: 49   F: -1311.784983311195901   dF: -1.681e-05   |Residual|: 5.325e-04   |deigs|: 2.394e-05  t[s]:   5928.87
	Linear fluid (dielectric constant: 78.4, screening length: 5.74355 Bohr) occupying 0.756975 of unit cell:	Completed after 1 iterations at t[s]:   5929.53
	FillingsUpdate:  mu: -0.147099484  nElectrons: 294.000000
	Linear fluid (dielectric constant: 78.4, screening length: 5.74355 Bohr) occupying 0.756986 of unit cell:	Completed after 3 iterations at t[s]:   5972.32
SCF: Cycle: 50   F: -1311.784976356726702   dF: +6.954e-06   |Residual|: 1.353e-03   |deigs|: 3.749e-05  t[s]:   5973.06
	Linear fluid (dielectric constant: 78.4, screening length: 5.74355 Bohr) occupying 0.756985 of unit cell:	Completed after 3 iterations at t[s]:   5973.90
	FillingsUpdate:  mu: -0.147090170  nElectrons: 294.000000
	Linear fluid (dielectric constant: 78.4, screening length: 5.74355 Bohr) occupying 0.756985 of unit cell:	Completed after 6 iterations at t[s]:   6019.74
SCF: Cycle: 51   F: -1311.784965829722523   dF: +1.053e-05   |Residual|: 1.862e-03   |deigs|: 2.531e-05  t[s]:   6020.55
	Linear fluid (dielectric constant: 78.4, screening length: 5.74355 Bohr) occupying 0.756986 of unit cell:	Completed after 6 iterations at t[s]:   6021.65
	FillingsUpdate:  mu: -0.147093026  nElectrons: 294.000000
	Linear fluid (dielectric constant: 78.4, screening length: 5.74355 Bohr) occupying 0.756985 of unit cell:	Completed after 3 iterations at t[s]:   6064.77
SCF: Cycle: 52   F: -1311.784982292572067   dF: -1.646e-05   |Residual|: 7.436e-04   |deigs|: 1.831e-05  t[s]:   6065.64
	Linear fluid (dielectric constant: 78.4, screening length: 5.74355 Bohr) occupying 0.756983 of unit cell:	Completed after 2 iterations at t[s]:   6066.40
	FillingsUpdate:  mu: -0.147089343  nElectrons: 294.000000
	Linear fluid (dielectric constant: 78.4, screening length: 5.74355 Bohr) occupying 0.756985 of unit cell:	Completed after 2 iterations at t[s]:   6108.23
SCF: Cycle: 53   F: -1311.784984142447911   dF: -1.850e-06   |Residual|: 2.928e-04   |deigs|: 1.659e-05  t[s]:   6108.98
	Linear fluid (dielectric constant: 78.4, screening length: 5.74355 Bohr) occupying 0.756983 of unit cell:	Completed after 3 iterations at t[s]:   6109.75
	FillingsUpdate:  mu: -0.147093352  nElectrons: 294.000000
	Linear fluid (dielectric constant: 78.4, screening length: 5.74355 Bohr) occupying 0.756985 of unit cell:	Completed after 3 iterations at t[s]:   6155.09
SCF: Cycle: 54   F: -1311.784976021000148   dF: +8.121e-06   |Residual|: 1.335e-03   |deigs|: 1.193e-05  t[s]:   6155.97
	Linear fluid (dielectric constant: 78.4, screening length: 5.74355 Bohr) occupying 0.756983 of unit cell:	Completed after 3 iterations at t[s]:   6156.84
	FillingsUpdate:  mu: -0.147092665  nElectrons: 294.000000
	Linear fluid (dielectric constant: 78.4, screening length: 5.74355 Bohr) occupying 0.756985 of unit cell:	Completed after 3 iterations at t[s]:   6189.63
SCF: Cycle: 55   F: -1311.784979836398406   dF: -3.815e-06   |Residual|: 9.119e-04   |deigs|: 1.028e-05  t[s]:   6190.49
	Linear fluid (dielectric constant: 78.4, screening length: 5.74355 Bohr) occupying 0.756983 of unit cell:	Completed after 3 iterations at t[s]:   6191.33
	FillingsUpdate:  mu: -0.147093027  nElectrons: 294.000000
	Linear fluid (dielectric constant: 78.4, screening length: 5.74355 Bohr) occupying 0.756984 of unit cell:	Completed after 6 iterations at t[s]:   6223.96
SCF: Cycle: 56   F: -1311.784965033562457   dF: +1.480e-05   |Residual|: 1.988e-03   |deigs|: 1.625e-05  t[s]:   6224.74
	Linear fluid (dielectric constant: 78.4, screening length: 5.74355 Bohr) occupying 0.756983 of unit cell:	Completed after 6 iterations at t[s]:   6225.86
	FillingsUpdate:  mu: -0.147099672  nElectrons: 294.000000
	Linear fluid (dielectric constant: 78.4, screening length: 5.74355 Bohr) occupying 0.756986 of unit cell:	Completed after 3 iterations at t[s]:   6258.62
SCF: Cycle: 57   F: -1311.784983060014838   dF: -1.803e-05   |Residual|: 5.590e-04   |deigs|: 1.141e-05  t[s]:   6259.55
	Linear fluid (dielectric constant: 78.4, screening length: 5.74355 Bohr) occupying 0.756982 of unit cell:	Completed after 3 iterations at t[s]:   6260.34
	FillingsUpdate:  mu: -0.147093256  nElectrons: 294.000000
	Linear fluid (dielectric constant: 78.4, screening length: 5.74355 Bohr) occupying 0.756985 of unit cell:	Completed after 2 iterations at t[s]:   6291.81
SCF: Cycle: 58   F: -1311.784984163760100   dF: -1.104e-06   |Residual|: 3.484e-04   |deigs|: 1.253e-05  t[s]:   6292.65
	Linear fluid (dielectric constant: 78.4, screening length: 5.74355 Bohr) occupying 0.756985 of unit cell:	Completed after 2 iterations at t[s]:   6293.40
	FillingsUpdate:  mu: -0.147098471  nElectrons: 294.000000
	Linear fluid (dielectric constant: 78.4, screening length: 5.74355 Bohr) occupying 0.756985 of unit cell:	Completed after 5 iterations at t[s]:   6367.16
SCF: Cycle: 59   F: -1311.784969582239000   dF: +1.458e-05   |Residual|: 1.866e-03   |deigs|: 3.894e-05  t[s]:   6368.03
	Linear fluid (dielectric constant: 78.4, screening length: 5.74355 Bohr) occupying 0.756985 of unit cell:	Completed after 4 iterations at t[s]:   6368.93
	FillingsUpdate:  mu: -0.147089452  nElectrons: 294.000000
	Linear fluid (dielectric constant: 78.4, screening length: 5.74355 Bohr) occupying 0.756985 of unit cell:	Completed after 5 iterations at t[s]:   6411.70
SCF: Cycle: 60   F: -1311.784967718025200   dF: +1.864e-06   |Residual|: 1.809e-03   |deigs|: 2.292e-05  t[s]:   6412.50
	Linear fluid (dielectric constant: 78.4, screening length: 5.74355 Bohr) occupying 0.756984 of unit cell:	Completed after 6 iterations at t[s]:   6413.55
	FillingsUpdate:  mu: -0.147094021  nElectrons: 294.000000
	Linear fluid (dielectric constant: 78.4, screening length: 5.74355 Bohr) occupying 0.756985 of unit cell:	Completed after 3 iterations at t[s]:   6476.03
SCF: Cycle: 61   F: -1311.784982690654260   dF: -1.497e-05   |Residual|: 6.293e-04   |deigs|: 1.563e-05  t[s]:   6476.82
	Linear fluid (dielectric constant: 78.4, screening length: 5.74355 Bohr) occupying 0.756984 of unit cell:	Completed after 3 iterations at t[s]:   6477.68
	FillingsUpdate:  mu: -0.147095123  nElectrons: 294.000000
	Linear fluid (dielectric constant: 78.4, screening length: 5.74355 Bohr) occupying 0.756985 of unit cell:	Completed after 3 iterations at t[s]:   6507.39
SCF: Cycle: 62   F: -1311.784983667725555   dF: -9.771e-07   |Residual|: 4.607e-04   |deigs|: 6.009e-06  t[s]:   6508.23
	Linear fluid (dielectric constant: 78.4, screening length: 5.74355 Bohr) occupying 0.756984 of unit cell:	Completed after 3 iterations at t[s]:   6509.10
	FillingsUpdate:  mu: -0.147095792  nElectrons: 294.000000
	Linear fluid (dielectric constant: 78.4, screening length: 5.74355 Bohr) occupying 0.756984 of unit cell:	Completed after 4 iterations at t[s]:   6555.25
SCF: Cycle: 63   F: -1311.784976882753426   dF: +6.785e-06   |Residual|: 1.238e-03   |deigs|: 1.357e-05  t[s]:   6556.26
	Linear fluid (dielectric constant: 78.4, screening length: 5.74355 Bohr) occupying 0.756983 of unit cell:	Completed after 4 iterations at t[s]:   6557.24
	FillingsUpdate:  mu: -0.147091675  nElectrons: 294.000000
	Linear fluid (dielectric constant: 78.4, screening length: 5.74355 Bohr) occupying 0.756985 of unit cell:	Completed after 3 iterations at t[s]:   6592.28
SCF: Cycle: 64   F: -1311.784981072797336   dF: -4.190e-06   |Residual|: 8.301e-04   |deigs|: 1.937e-05  t[s]:   6593.04
	Linear fluid (dielectric constant: 78.4, screening length: 5.74355 Bohr) occupying 0.756983 of unit cell:	Completed after 3 iterations at t[s]:   6593.85
	FillingsUpdate:  mu: -0.147087801  nElectrons: 294.000000
	Linear fluid (dielectric constant: 78.4, screening length: 5.74355 Bohr) occupying 0.756984 of unit cell:	Completed after 6 iterations at t[s]:   6635.66
SCF: Cycle: 65   F: -1311.784965410447739   dF: +1.566e-05   |Residual|: 1.952e-03   |deigs|: 1.818e-05  t[s]:   6636.42
	Linear fluid (dielectric constant: 78.4, screening length: 5.74355 Bohr) occupying 0.756984 of unit cell:	Completed after 5 iterations at t[s]:   6637.41
	FillingsUpdate:  mu: -0.147096507  nElectrons: 294.000000
	Linear fluid (dielectric constant: 78.4, screening length: 5.74355 Bohr) occupying 0.756985 of unit cell:	Completed after 3 iterations at t[s]:   6667.13
SCF: Cycle: 66   F: -1311.784982331082574   dF: -1.692e-05   |Residual|: 6.942e-04   |deigs|: 1.325e-05  t[s]:   6667.97
	Linear fluid (dielectric constant: 78.4, screening length: 5.74355 Bohr) occupying 0.756984 of unit cell:	Completed after 3 iterations at t[s]:   6668.81
	FillingsUpdate:  mu: -0.147095011  nElectrons: 294.000000
	Linear fluid (dielectric constant: 78.4, screening length: 5.74355 Bohr) occupying 0.756985 of unit cell:	Completed after 3 iterations at t[s]:   6698.99
SCF: Cycle: 67   F: -1311.784983162688150   dF: -8.316e-07   |Residual|: 6.087e-04   |deigs|: 7.318e-06  t[s]:   6699.72
	Linear fluid (dielectric constant: 78.4, screening length: 5.74355 Bohr) occupying 0.756984 of unit cell:	Completed after 2 iterations at t[s]:   6700.47
	FillingsUpdate:  mu: -0.147091868  nElectrons: 294.000000
	Linear fluid (dielectric constant: 78.4, screening length: 5.74355 Bohr) occupying 0.756984 of unit cell:	Completed after 6 iterations at t[s]:   6747.10
SCF: Cycle: 68   F: -1311.784972187385620   dF: +1.098e-05   |Residual|: 1.597e-03   |deigs|: 8.585e-06  t[s]:   6747.90
	Linear fluid (dielectric constant: 78.4, screening length: 5.74355 Bohr) occupying 0.756985 of unit cell:	Completed after 3 iterations at t[s]:   6748.71
	FillingsUpdate:  mu: -0.147085120  nElectrons: 294.000000
	Linear fluid (dielectric constant: 78.4, screening length: 5.74355 Bohr) occupying 0.756984 of unit cell:	Completed after 3 iterations at t[s]:   6781.88
SCF: Cycle: 69   F: -1311.784980794872354   dF: -8.607e-06   |Residual|: 8.467e-04   |deigs|: 1.548e-05  t[s]:   6782.74
	Linear fluid (dielectric constant: 78.4, screening length: 5.74355 Bohr) occupying 0.756985 of unit cell:	Completed after 3 iterations at t[s]:   6783.55
	FillingsUpdate:  mu: -0.147086458  nElectrons: 294.000000
	Linear fluid (dielectric constant: 78.4, screening length: 5.74355 Bohr) occupying 0.756984 of unit cell:	Completed after 6 iterations at t[s]:   6828.90
SCF: Cycle: 70   F: -1311.784945023354567   dF: +3.577e-05   |Residual|: 2.863e-03   |deigs|: 1.942e-05  t[s]:   6829.71
	Linear fluid (dielectric constant: 78.4, screening length: 5.74355 Bohr) occupying 0.756985 of unit cell:	Completed after 6 iterations at t[s]:   6830.81
	FillingsUpdate:  mu: -0.147094848  nElectrons: 294.000000
	Linear fluid (dielectric constant: 78.4, screening length: 5.74355 Bohr) occupying 0.756985 of unit cell:	Completed after 3 iterations at t[s]:   6871.55
SCF: Cycle: 71   F: -1311.784980985928541   dF: -3.596e-05   |Residual|: 9.094e-04   |deigs|: 1.510e-05  t[s]:   6872.49
	Linear fluid (dielectric constant: 78.4, screening length: 5.74355 Bohr) occupying 0.756985 of unit cell:	Completed after 3 iterations at t[s]:   6873.41
	FillingsUpdate:  mu: -0.147087704  nElectrons: 294.000000
	Linear fluid (dielectric constant: 78.4, screening length: 5.74355 Bohr) occupying 0.756984 of unit cell:	Completed after 3 iterations at t[s]:   6913.44
SCF: Cycle: 72   F: -1311.784982672418437   dF: -1.686e-06   |Residual|: 6.635e-04   |deigs|: 1.265e-05  t[s]:   6914.23
	Linear fluid (dielectric constant: 78.4, screening length: 5.74355 Bohr) occupying 0.756985 of unit cell:	Completed after 3 iterations at t[s]:   6915.11
	FillingsUpdate:  mu: -0.147091233  nElectrons: 294.000000
	Linear fluid (dielectric constant: 78.4, screening length: 5.74355 Bohr) occupying 0.756984 of unit cell:	Completed after 5 iterations at t[s]:   6950.82
SCF: Cycle: 73   F: -1311.784970037183257   dF: +1.264e-05   |Residual|: 1.693e-03   |deigs|: 1.051e-05  t[s]:   6951.74
	Linear fluid (dielectric constant: 78.4, screening length: 5.74355 Bohr) occupying 0.756985 of unit cell:	Completed after 6 iterations at t[s]:   6952.91
	FillingsUpdate:  mu: -0.147098547  nElectrons: 294.000000
	Linear fluid (dielectric constant: 78.4, screening length: 5.74355 Bohr) occupying 0.756985 of unit cell:	Completed after 2 iterations at t[s]:   6982.05
SCF: Cycle: 74   F: -1311.784982252450845   dF: -1.222e-05   |Residual|: 7.110e-04   |deigs|: 1.247e-05  t[s]:   6982.80
	Linear fluid (dielectric constant: 78.4, screening length: 5.74355 Bohr) occupying 0.756985 of unit cell:	Completed after 3 iterations at t[s]:   6983.60
	FillingsUpdate:  mu: -0.147092134  nElectrons: 294.000000
	Linear fluid (dielectric constant: 78.4, screening length: 5.74355 Bohr) occupying 0.756984 of unit cell:	Completed after 3 iterations at t[s]:   7023.15
SCF: Cycle: 75   F: -1311.784983333384162   dF: -1.081e-06   |Residual|: 5.614e-04   |deigs|: 7.828e-06  t[s]:   7023.95
	Linear fluid (dielectric constant: 78.4, screening length: 5.74355 Bohr) occupying 0.756985 of unit cell:	Completed after 2 iterations at t[s]:   7024.74
	FillingsUpdate:  mu: -0.147092658  nElectrons: 294.000000
	Linear fluid (dielectric constant: 78.4, screening length: 5.74355 Bohr) occupying 0.756984 of unit cell:	Completed after 6 iterations at t[s]:   7070.58
SCF: Cycle: 76   F: -1311.784970231800571   dF: +1.310e-05   |Residual|: 1.714e-03   |deigs|: 9.726e-06  t[s]:   7071.33
	Linear fluid (dielectric constant: 78.4, screening length: 5.74355 Bohr) occupying 0.756986 of unit cell:	Completed after 6 iterations at t[s]:   7072.39
	FillingsUpdate:  mu: -0.147093922  nElectrons: 294.000000
	Linear fluid (dielectric constant: 78.4, screening length: 5.74355 Bohr) occupying 0.756985 of unit cell:	Completed after 3 iterations at t[s]:   7110.67
SCF: Cycle: 77   F: -1311.784982841915507   dF: -1.261e-05   |Residual|: 6.026e-04   |deigs|: 8.919e-06  t[s]:   7111.62
	Linear fluid (dielectric constant: 78.4, screening length: 5.74355 Bohr) occupying 0.756986 of unit cell:	Completed after 3 iterations at t[s]:   7112.42
	FillingsUpdate:  mu: -0.147097031  nElectrons: 294.000000
	Linear fluid (dielectric constant: 78.4, screening length: 5.74355 Bohr) occupying 0.756985 of unit cell:	Completed after 2 iterations at t[s]:   7148.37
SCF: Cycle: 78   F: -1311.784984443454050   dF: -1.602e-06   |Residual|: 2.307e-04   |deigs|: 6.093e-06  t[s]:   7149.38
	Linear fluid (dielectric constant: 78.4, screening length: 5.74355 Bohr) occupying 0.756986 of unit cell:	Completed after 2 iterations at t[s]:   7150.16
	FillingsUpdate:  mu: -0.147091320  nElectrons: 294.000000
	Linear fluid (dielectric constant: 78.4, screening length: 5.74355 Bohr) occupying 0.756983 of unit cell:	Completed after 6 iterations at t[s]:   7192.34
SCF: Cycle: 79   F: -1311.784947727947610   dF: +3.672e-05   |Residual|: 2.973e-03   |deigs|: 1.136e-05  t[s]:   7193.16
	Linear fluid (dielectric constant: 78.4, screening length: 5.74355 Bohr) occupying 0.756986 of unit cell:	Completed after 5 iterations at t[s]:   7194.11
	FillingsUpdate:  mu: -0.147097065  nElectrons: 294.000000
	Linear fluid (dielectric constant: 78.4, screening length: 5.74355 Bohr) occupying 0.756985 of unit cell:	Completed after 4 iterations at t[s]:   7238.24
SCF: Cycle: 80   F: -1311.784980043412588   dF: -3.232e-05   |Residual|: 9.552e-04   |deigs|: 1.199e-05  t[s]:   7239.00
	Linear fluid (dielectric constant: 78.4, screening length: 5.74355 Bohr) occupying 0.756986 of unit cell:	Completed after 3 iterations at t[s]:   7239.83
	FillingsUpdate:  mu: -0.147088619  nElectrons: 294.000000
	Linear fluid (dielectric constant: 78.4, screening length: 5.74355 Bohr) occupying 0.756984 of unit cell:	Completed after 3 iterations at t[s]:   7290.41
SCF: Cycle: 81   F: -1311.784980848988425   dF: -8.056e-07   |Residual|: 7.998e-04   |deigs|: 1.061e-05  t[s]:   7291.25
	Linear fluid (dielectric constant: 78.4, screening length: 5.74355 Bohr) occupying 0.756986 of unit cell:	Completed after 4 iterations at t[s]:   7292.17
	FillingsUpdate:  mu: -0.147090869  nElectrons: 294.000000
	Linear fluid (dielectric constant: 78.4, screening length: 5.74355 Bohr) occupying 0.756984 of unit cell:	Completed after 3 iterations at t[s]:   7365.49
SCF: Cycle: 82   F: -1311.784979135606591   dF: +1.713e-06   |Residual|: 1.064e-03   |deigs|: 9.425e-06  t[s]:   7366.47
	Linear fluid (dielectric constant: 78.4, screening length: 5.74355 Bohr) occupying 0.756986 of unit cell:	Completed after 3 iterations at t[s]:   7367.35
	FillingsUpdate:  mu: -0.147086373  nElectrons: 294.000000
	Linear fluid (dielectric constant: 78.4, screening length: 5.74355 Bohr) occupying 0.756984 of unit cell:	Completed after 3 iterations at t[s]:   7418.66
SCF: Cycle: 83   F: -1311.784979133054094   dF: +2.552e-09   |Residual|: 1.063e-03   |deigs|: 9.295e-06  t[s]:   7419.79
	Linear fluid (dielectric constant: 78.4, screening length: 5.74355 Bohr) occupying 0.756986 of unit cell:	Completed after 4 iterations at t[s]:   7420.98
	FillingsUpdate:  mu: -0.147093329  nElectrons: 294.000000
	Linear fluid (dielectric constant: 78.4, screening length: 5.74355 Bohr) occupying 0.756984 of unit cell:	Completed after 3 iterations at t[s]:   7472.79
SCF: Cycle: 84   F: -1311.784974611678763   dF: +4.521e-06   |Residual|: 1.452e-03   |deigs|: 1.055e-05  t[s]:   7474.00
	Linear fluid (dielectric constant: 78.4, screening length: 5.74355 Bohr) occupying 0.756986 of unit cell:	Completed after 3 iterations at t[s]:   7474.95
	FillingsUpdate:  mu: -0.147093460  nElectrons: 294.000000
	Linear fluid (dielectric constant: 78.4, screening length: 5.74355 Bohr) occupying 0.756984 of unit cell:	Completed after 6 iterations at t[s]:   7525.90
SCF: Cycle: 85   F: -1311.784968217224105   dF: +6.394e-06   |Residual|: 1.785e-03   |deigs|: 1.404e-05  t[s]:   7526.78
	Linear fluid (dielectric constant: 78.4, screening length: 5.74355 Bohr) occupying 0.756986 of unit cell:	Completed after 6 iterations at t[s]:   7528.03
	FillingsUpdate:  mu: -0.147096311  nElectrons: 294.000000
	Linear fluid (dielectric constant: 78.4, screening length: 5.74355 Bohr) occupying 0.756984 of unit cell:	Completed after 4 iterations at t[s]:   7560.89
SCF: Cycle: 86   F: -1311.784978990517402   dF: -1.077e-05   |Residual|: 1.071e-03   |deigs|: 8.284e-06  t[s]:   7561.83
	Linear fluid (dielectric constant: 78.4, screening length: 5.74355 Bohr) occupying 0.756986 of unit cell:	Completed after 3 iterations at t[s]:   7562.77
	FillingsUpdate:  mu: -0.147089193  nElectrons: 294.000000
	Linear fluid (dielectric constant: 78.4, screening length: 5.74355 Bohr) occupying 0.756984 of unit cell:	Completed after 3 iterations at t[s]:   7596.63
SCF: Cycle: 87   F: -1311.784982762912705   dF: -3.772e-06   |Residual|: 6.593e-04   |deigs|: 8.503e-06  t[s]:   7597.98
	Linear fluid (dielectric constant: 78.4, screening length: 5.74355 Bohr) occupying 0.756986 of unit cell:	Completed after 3 iterations at t[s]:   7598.99
	FillingsUpdate:  mu: -0.147090424  nElectrons: 294.000000
	Linear fluid (dielectric constant: 78.4, screening length: 5.74355 Bohr) occupying 0.756984 of unit cell:	Completed after 6 iterations at t[s]:   7633.33
SCF: Cycle: 88   F: -1311.784970108329844   dF: +1.265e-05   |Residual|: 1.695e-03   |deigs|: 9.016e-06  t[s]:   7634.66
	Linear fluid (dielectric constant: 78.4, screening length: 5.74355 Bohr) occupying 0.756986 of unit cell:	Completed after 6 iterations at t[s]:   7636.16
	FillingsUpdate:  mu: -0.147096919  nElectrons: 294.000000
	Linear fluid (dielectric constant: 78.4, screening length: 5.74355 Bohr) occupying 0.756985 of unit cell:	Completed after 3 iterations at t[s]:   7670.43
SCF: Cycle: 89   F: -1311.784981897826128   dF: -1.179e-05   |Residual|: 7.315e-04   |deigs|: 7.459e-06  t[s]:   7671.78
	Linear fluid (dielectric constant: 78.4, screening length: 5.74355 Bohr) occupying 0.756986 of unit cell:	Completed after 3 iterations at t[s]:   7672.85
	FillingsUpdate:  mu: -0.147088748  nElectrons: 294.000000
	Linear fluid (dielectric constant: 78.4, screening length: 5.74355 Bohr) occupying 0.756984 of unit cell:	Completed after 3 iterations at t[s]:   7706.71
SCF: Cycle: 90   F: -1311.784982736600341   dF: -8.388e-07   |Residual|: 6.635e-04   |deigs|: 7.491e-06  t[s]:   7707.80
	Linear fluid (dielectric constant: 78.4, screening length: 5.74355 Bohr) occupying 0.756986 of unit cell:	Completed after 3 iterations at t[s]:   7708.88
	FillingsUpdate:  mu: -0.147093767  nElectrons: 294.000000
	Linear fluid (dielectric constant: 78.4, screening length: 5.74355 Bohr) occupying 0.756984 of unit cell:	Completed after 6 iterations at t[s]:   7760.35
SCF: Cycle: 91   F: -1311.784973114562945   dF: +9.622e-06   |Residual|: 1.510e-03   |deigs|: 1.103e-05  t[s]:   7761.36
	Linear fluid (dielectric constant: 78.4, screening length: 5.74355 Bohr) occupying 0.756986 of unit cell:	Completed after 2 iterations at t[s]:   7762.27
	FillingsUpdate:  mu: -0.147091857  nElectrons: 294.000000
	Linear fluid (dielectric constant: 78.4, screening length: 5.74355 Bohr) occupying 0.756985 of unit cell:	Completed after 3 iterations at t[s]:   7796.38
[...]
	FillingsUpdate:  mu: -0.147016213  nElectrons: 294.000000
	SubspaceRotationAdjust: set factor to 0.0414
ElecMinimize: Iter:  10  F: -1311.784744741799614  |grad|_K:  1.289e-06  alpha:  5.528e-01  linmin:  2.597e-06  t[s]:   1376.58
	Linear fluid (dielectric constant: 78.4, screening length: 5.74355 Bohr) occupying 0.756890 of unit cell:	Completed after 3 iterations at t[s]:   1381.38
	Linear fluid (dielectric constant: 78.4, screening length: 5.74355 Bohr) occupying 0.756890 of unit cell:	Completed after 2 iterations at t[s]:   1385.94
	FillingsUpdate:  mu: -0.146994429  nElectrons: 294.000000
	SubspaceRotationAdjust: set factor to 0.0425
ElecMinimize: Iter:  11  F: -1311.784804883359811  |grad|_K:  1.190e-06  alpha:  4.872e-01  linmin:  1.229e-06  t[s]:   1390.77
	Linear fluid (dielectric constant: 78.4, screening length: 5.74355 Bohr) occupying 0.756893 of unit cell:	Completed after 3 iterations at t[s]:   1395.15
	Linear fluid (dielectric constant: 78.4, screening length: 5.74355 Bohr) occupying 0.756893 of unit cell:	Completed after 2 iterations at t[s]:   1399.52
	FillingsUpdate:  mu: -0.147147761  nElectrons: 294.000000
	SubspaceRotationAdjust: set factor to 0.0447
ElecMinimize: Iter:  12  F: -1311.784843898280769  |grad|_K:  9.582e-07  alpha:  3.704e-01  linmin:  4.014e-07  t[s]:   1404.48
	Linear fluid (dielectric constant: 78.4, screening length: 5.74355 Bohr) occupying 0.756898 of unit cell:	Completed after 3 iterations at t[s]:   1409.32
	Linear fluid (dielectric constant: 78.4, screening length: 5.74355 Bohr) occupying 0.756900 of unit cell:	Completed after 2 iterations at t[s]:   1413.71
	FillingsUpdate:  mu: -0.147090101  nElectrons: 294.000000
	SubspaceRotationAdjust: set factor to 0.0489
ElecMinimize: Iter:  13  F: -1311.784877071779420  |grad|_K:  7.607e-07  alpha:  4.835e-01  linmin: -2.950e-06  t[s]:   1418.56
	Linear fluid (dielectric constant: 78.4, screening length: 5.74355 Bohr) occupying 0.756910 of unit cell:	Completed after 3 iterations at t[s]:   1423.17
	Linear fluid (dielectric constant: 78.4, screening length: 5.74355 Bohr) occupying 0.756911 of unit cell:	Completed after 0 iterations at t[s]:   1427.42
	FillingsUpdate:  mu: -0.146868300  nElectrons: 294.000000
	SubspaceRotationAdjust: set factor to 0.0498
ElecMinimize: Iter:  14  F: -1311.784899317917507  |grad|_K:  6.975e-07  alpha:  5.121e-01  linmin: -1.034e-05  t[s]:   1432.11
	Linear fluid (dielectric constant: 78.4, screening length: 5.74355 Bohr) occupying 0.756925 of unit cell:	Completed after 3 iterations at t[s]:   1436.78
	Linear fluid (dielectric constant: 78.4, screening length: 5.74355 Bohr) occupying 0.756924 of unit cell:	Completed after 0 iterations at t[s]:   1440.92
	FillingsUpdate:  mu: -0.147128295  nElectrons: 294.000000
	SubspaceRotationAdjust: set factor to 0.0495
ElecMinimize: Iter:  15  F: -1311.784916878857985  |grad|_K:  7.250e-07  alpha:  4.751e-01  linmin:  1.739e-05  t[s]:   1445.94
	Linear fluid (dielectric constant: 78.4, screening length: 5.74355 Bohr) occupying 0.756942 of unit cell:	Completed after 3 iterations at t[s]:   1450.89
	Linear fluid (dielectric constant: 78.4, screening length: 5.74355 Bohr) occupying 0.756937 of unit cell:	Completed after 2 iterations at t[s]:   1455.46
	FillingsUpdate:  mu: -0.147068671  nElectrons: 294.000000
	SubspaceRotationAdjust: set factor to 0.0494
ElecMinimize: Iter:  16  F: -1311.784929877556351  |grad|_K:  5.842e-07  alpha:  3.474e-01  linmin: -7.816e-06  t[s]:   1460.32
	Linear fluid (dielectric constant: 78.4, screening length: 5.74355 Bohr) occupying 0.756946 of unit cell:	Completed after 2 iterations at t[s]:   1464.65
	Linear fluid (dielectric constant: 78.4, screening length: 5.74355 Bohr) occupying 0.756951 of unit cell:	Completed after 3 iterations at t[s]:   1469.21
	FillingsUpdate:  mu: -0.147057392  nElectrons: 294.000000
	SubspaceRotationAdjust: set factor to 0.0477
ElecMinimize: Iter:  17  F: -1311.784943168478776  |grad|_K:  5.807e-07  alpha:  5.156e-01  linmin: -1.699e-06  t[s]:   1474.23
	Linear fluid (dielectric constant: 78.4, screening length: 5.74355 Bohr) occupying 0.756963 of unit cell:	Completed after 3 iterations at t[s]:   1478.83
	Linear fluid (dielectric constant: 78.4, screening length: 5.74355 Bohr) occupying 0.756962 of unit cell:	Completed after 0 iterations at t[s]:   1483.13
	FillingsUpdate:  mu: -0.147370004  nElectrons: 294.000000
	SubspaceRotationAdjust: set factor to 0.0464
ElecMinimize: Iter:  18  F: -1311.784954605971279  |grad|_K:  5.121e-07  alpha:  4.505e-01  linmin:  2.039e-05  t[s]:   1488.02
	Linear fluid (dielectric constant: 78.4, screening length: 5.74355 Bohr) occupying 0.756968 of unit cell:	Completed after 2 iterations at t[s]:   1492.43
	Linear fluid (dielectric constant: 78.4, screening length: 5.74355 Bohr) occupying 0.756967 of unit cell:	Completed after 1 iterations at t[s]:   1496.65
	FillingsUpdate:  mu: -0.147298789  nElectrons: 294.000000
	SubspaceRotationAdjust: set factor to 0.0455
ElecMinimize: Iter:  19  F: -1311.784961629422696  |grad|_K:  4.851e-07  alpha:  3.755e-01  linmin: -6.256e-06  t[s]:   1501.53
	Linear fluid (dielectric constant: 78.4, screening length: 5.74355 Bohr) occupying 0.756970 of unit cell:	Completed after 3 iterations at t[s]:   1506.18
	Linear fluid (dielectric constant: 78.4, screening length: 5.74355 Bohr) occupying 0.756970 of unit cell:	Completed after 0 iterations at t[s]:   1510.32
	FillingsUpdate:  mu: -0.147269984  nElectrons: 294.000000
	SubspaceRotationAdjust: set factor to 0.0424
ElecMinimize: Iter:  20  F: -1311.784969196758539  |grad|_K:  3.596e-07  alpha:  4.225e-01  linmin: -4.389e-05  t[s]:   1515.24
	Linear fluid (dielectric constant: 78.4, screening length: 5.74355 Bohr) occupying 0.756971 of unit cell:	Completed after 2 iterations at t[s]:   1519.68
	Linear fluid (dielectric constant: 78.4, screening length: 5.74355 Bohr) occupying 0.756971 of unit cell:	Completed after 0 iterations at t[s]:   1523.70
	FillingsUpdate:  mu: -0.147370084  nElectrons: 294.000000
	SubspaceRotationAdjust: set factor to 0.0428
ElecMinimize: Iter:  21  F: -1311.784973493025063  |grad|_K:  3.548e-07  alpha:  4.222e-01  linmin:  1.900e-05  t[s]:   1528.38
	Linear fluid (dielectric constant: 78.4, screening length: 5.74355 Bohr) occupying 0.756971 of unit cell:	Completed after 2 iterations at t[s]:   1532.85
	Linear fluid (dielectric constant: 78.4, screening length: 5.74355 Bohr) occupying 0.756972 of unit cell:	Completed after 0 iterations at t[s]:   1537.05
	FillingsUpdate:  mu: -0.147295472  nElectrons: 294.000000
	SubspaceRotationAdjust: set factor to 0.0484
ElecMinimize: Iter:  22  F: -1311.784977470448666  |grad|_K:  2.610e-07  alpha:  4.355e-01  linmin: -6.051e-06  t[s]:   1541.94
	Linear fluid (dielectric constant: 78.4, screening length: 5.74355 Bohr) occupying 0.756973 of unit cell:	Completed after 1 iterations at t[s]:   1546.35
	Linear fluid (dielectric constant: 78.4, screening length: 5.74355 Bohr) occupying 0.756973 of unit cell:	Completed after 0 iterations at t[s]:   1550.60
	FillingsUpdate:  mu: -0.147189256  nElectrons: 294.000000
	SubspaceRotationAdjust: set factor to 0.0456
ElecMinimize: Iter:  23  F: -1311.784979463601758  |grad|_K:  2.785e-07  alpha:  3.875e-01  linmin:  3.470e-05  t[s]:   1555.35
	Linear fluid (dielectric constant: 78.4, screening length: 5.74355 Bohr) occupying 0.756976 of unit cell:	Completed after 3 iterations at t[s]:   1559.86
	Linear fluid (dielectric constant: 78.4, screening length: 5.74355 Bohr) occupying 0.756975 of unit cell:	Completed after 0 iterations at t[s]:   1564.02
	FillingsUpdate:  mu: -0.147217220  nElectrons: 294.000000
	SubspaceRotationAdjust: set factor to 0.04
ElecMinimize: Iter:  24  F: -1311.784981161592214  |grad|_K:  2.160e-07  alpha:  3.049e-01  linmin:  4.976e-05  t[s]:   1569.00
	Linear fluid (dielectric constant: 78.4, screening length: 5.74355 Bohr) occupying 0.756978 of unit cell:	Completed after 1 iterations at t[s]:   1573.57
	Linear fluid (dielectric constant: 78.4, screening length: 5.74355 Bohr) occupying 0.756978 of unit cell:	Completed after 0 iterations at t[s]:   1577.86
	FillingsUpdate:  mu: -0.147197580  nElectrons: 294.000000
	SubspaceRotationAdjust: set factor to 0.0377
ElecMinimize: Iter:  25  F: -1311.784982042871661  |grad|_K:  1.590e-07  alpha:  2.714e-01  linmin: -8.482e-05  t[s]:   1582.69
	Linear fluid (dielectric constant: 78.4, screening length: 5.74355 Bohr) occupying 0.756979 of unit cell:	Completed after 0 iterations at t[s]:   1586.79
	Linear fluid (dielectric constant: 78.4, screening length: 5.74355 Bohr) occupying 0.756981 of unit cell:	Completed after 1 iterations at t[s]:   1591.14
	FillingsUpdate:  mu: -0.147167010  nElectrons: 294.000000
	SubspaceRotationAdjust: set factor to 0.0387
ElecMinimize: Iter:  26  F: -1311.784982974478908  |grad|_K:  1.292e-07  alpha:  5.042e-01  linmin:  8.549e-05  t[s]:   1596.39
	Linear fluid (dielectric constant: 78.4, screening length: 5.74355 Bohr) occupying 0.756984 of unit cell:	Completed after 2 iterations at t[s]:   1601.09
	Linear fluid (dielectric constant: 78.4, screening length: 5.74355 Bohr) occupying 0.756984 of unit cell:	Completed after 0 iterations at t[s]:   1605.39
	FillingsUpdate:  mu: -0.147168399  nElectrons: 294.000000
	SubspaceRotationAdjust: set factor to 0.0402
ElecMinimize: Iter:  27  F: -1311.784983528367775  |grad|_K:  1.065e-07  alpha:  4.730e-01  linmin: -1.294e-05  t[s]:   1610.20
	Linear fluid (dielectric constant: 78.4, screening length: 5.74355 Bohr) occupying 0.756986 of unit cell:	Completed after 1 iterations at t[s]:   1614.48
	Linear fluid (dielectric constant: 78.4, screening length: 5.74355 Bohr) occupying 0.756986 of unit cell:	Completed after 0 iterations at t[s]:   1618.52
	FillingsUpdate:  mu: -0.147148558  nElectrons: 294.000000
	SubspaceRotationAdjust: set factor to 0.0439
ElecMinimize: Iter:  28  F: -1311.784983864501555  |grad|_K:  8.117e-08  alpha:  3.961e-01  linmin: -1.271e-05  t[s]:   1623.20
	Linear fluid (dielectric constant: 78.4, screening length: 5.74355 Bohr) occupying 0.756986 of unit cell:	Completed after 0 iterations at t[s]:   1627.38
	Linear fluid (dielectric constant: 78.4, screening length: 5.74355 Bohr) occupying 0.756987 of unit cell:	Completed after 0 iterations at t[s]:   1631.36
	FillingsUpdate:  mu: -0.147149064  nElectrons: 294.000000
	SubspaceRotationAdjust: set factor to 0.05
ElecMinimize: Iter:  29  F: -1311.784984099181202  |grad|_K:  6.643e-08  alpha:  4.635e-01  linmin: -1.302e-04  t[s]:   1635.97
	Linear fluid (dielectric constant: 78.4, screening length: 5.74355 Bohr) occupying 0.756987 of unit cell:	Completed after 1 iterations at t[s]:   1640.39
	Linear fluid (dielectric constant: 78.4, screening length: 5.74355 Bohr) occupying 0.756987 of unit cell:	Completed after 0 iterations at t[s]:   1644.38
	FillingsUpdate:  mu: -0.147088437  nElectrons: 294.000000
	SubspaceRotationAdjust: set factor to 0.0534
ElecMinimize: Iter:  30  F: -1311.784984198865459  |grad|_K:  6.345e-08  alpha:  3.343e-01  linmin: -2.329e-04  t[s]:   1649.27
	Linear fluid (dielectric constant: 78.4, screening length: 5.74355 Bohr) occupying 0.756987 of unit cell:	Completed after 0 iterations at t[s]:   1653.69
	Linear fluid (dielectric constant: 78.4, screening length: 5.74355 Bohr) occupying 0.756987 of unit cell:	Completed after 0 iterations at t[s]:   1657.90
	FillingsUpdate:  mu: -0.147087588  nElectrons: 294.000000
	SubspaceRotationAdjust: set factor to 0.0673
ElecMinimize: Iter:  31  F: -1311.784984324846619  |grad|_K:  6.340e-08  alpha:  3.918e-01  linmin: -7.258e-05  t[s]:   1662.68
	Linear fluid (dielectric constant: 78.4, screening length: 5.74355 Bohr) occupying 0.756987 of unit cell:	Completed after 2 iterations at t[s]:   1667.61
	Linear fluid (dielectric constant: 78.4, screening length: 5.74355 Bohr) occupying 0.756987 of unit cell:	Completed after 1 iterations at t[s]:   1672.10
ElecMinimize: 	Step increased F by 3.465630e-08, reducing alpha to 9.170384e-03.
	Linear fluid (dielectric constant: 78.4, screening length: 5.74355 Bohr) occupying 0.756987 of unit cell:	Completed after 0 iterations at t[s]:   1680.14
ElecMinimize: 	Step increased F by 6.069286e-09, reducing alpha to 9.170384e-04.
	Linear fluid (dielectric constant: 78.4, screening length: 5.74355 Bohr) occupying 0.756987 of unit cell:	Completed after 0 iterations at t[s]:   1688.50
ElecMinimize: 	Step increased F by 3.904461e-09, reducing alpha to 9.170384e-05.
ElecMinimize: 	Step failed to reduce F after 3 attempts. Quitting step.
ElecMinimize: 	Undoing step.
	Linear fluid (dielectric constant: 78.4, screening length: 5.74355 Bohr) occupying 0.756987 of unit cell:	Completed after 0 iterations at t[s]:   1697.21
ElecMinimize: 	Step failed: resetting search direction.
	FillingsUpdate:  mu: -0.147101355  nElectrons: 294.000000
	SubspaceRotationAdjust: set factor to 0.0628
ElecMinimize: Iter:  32  F: -1311.784984321030606  |grad|_K:  1.350e-07  alpha:  9.170e-05
	Linear fluid (dielectric constant: 78.4, screening length: 5.74355 Bohr) occupying 0.756987 of unit cell:	Completed after 2 iterations at t[s]:   1706.87
	Linear fluid (dielectric constant: 78.4, screening length: 5.74355 Bohr) occupying 0.756987 of unit cell:	Completed after 2 iterations at t[s]:   1711.40
	FillingsUpdate:  mu: -0.147067355  nElectrons: 294.000000
	SubspaceRotationAdjust: set factor to 0.0323
ElecMinimize: Iter:  33  F: -1311.784984323997378  |grad|_K:  6.746e-08  alpha:  9.760e-02  linmin:  2.966e-03  t[s]:   1716.32
	Linear fluid (dielectric constant: 78.4, screening length: 5.74355 Bohr) occupying 0.756987 of unit cell:	Completed after 0 iterations at t[s]:   1720.45
ElecMinimize: 	Predicted alpha/alphaT>3.000000, increasing alphaT to 2.928097e-01.
	Linear fluid (dielectric constant: 78.4, screening length: 5.74355 Bohr) occupying 0.756987 of unit cell:	Completed after 0 iterations at t[s]:   1724.54
	Linear fluid (dielectric constant: 78.4, screening length: 5.74355 Bohr) occupying 0.756987 of unit cell:	Completed after 1 iterations at t[s]:   1728.85
	FillingsUpdate:  mu: -0.147074656  nElectrons: 294.000000
	SubspaceRotationAdjust: set factor to 0.027
ElecMinimize: Iter:  34  F: -1311.784984330945008  |grad|_K:  8.549e-08  alpha:  5.161e-01  linmin:  8.549e-04  t[s]:   1733.63
ElecMinimize: Converged (|Delta F|<1.000000e-08 for 2 iters).
Setting wave functions to eigenvectors of Hamiltonian
Single-point solvation energy estimate, DeltaF = +0.001048884877264

# Ionic positions in lattice coordinates:
ion Mn   0.332731926076709  -0.000009965335930   0.500001369490486 0
ion Mn   0.000188858805733   0.500007379152293   0.500001907595891 0
ion Mn   0.666063795606023   0.000014377143345   0.500009079265215 0
ion Mn   0.333512886203484   0.500016685972462   0.500003064264151 0
ion Mn   0.999383009752197   0.000002275984406   0.500003670915429 0
ion Mn   0.666835733400282   0.500011281334794   0.500004256229994 0
ion Sb   0.166778443831345   0.297674883615830   0.616376003149675 0
ion Sb   0.166887374185579   0.702423394417107   0.383628936467138 0
ion Sb   0.500107101651037   0.297698975146059   0.616373041058065 0
ion Sb   0.500254154770094   0.702226445755512   0.383611473179659 0
ion Sb   0.833443288670234   0.297679866250972   0.616375969191309 0
ion Sb   0.833593854370031   0.702225708908804   0.383615660662781 0
ion Se   0.000112265800751   0.246507997490420   0.530198229167924 0
ion Se   0.166899403446928   0.465920647445779   0.410202227471489 0
ion Se   0.000275245354870   0.753523417219431   0.469798643134026 0
ion Se   0.166802913694104   0.534130628652006   0.589804725140370 0
ion Se   0.333451268704121   0.246506136876042   0.530202973542590 0
ion Se   0.500238420036744   0.465824404562720   0.410163558070658 0
ion Se   0.333644793493073   0.753526466328526   0.469785656533967 0
ion Se   0.500126060610363   0.534126433801202   0.589806889854255 0
ion Se   0.666759607952906   0.246507456084950   0.530208514270474 0
ion Se   0.833574456539567   0.465817914636995   0.410165358781553 0
ion Se   0.666967126651867   0.753510102607698   0.469782815999134 0
ion Se   0.833473456346534   0.534136949652690   0.589801917393855 0
ion I   0.166394963783106   0.938578787720750   0.595818626984929 0
ion I   0.166236219327200   0.061415199005360   0.404203226916371 0
ion I   0.499734068784714   0.938580846074821   0.595821650328500 0
ion I   0.499572240781902   0.061410033579473   0.404203512457763 0
ion I   0.833056471678762   0.938582675125211   0.595822156802073 0
ion I   0.832900532689758   0.061422576790272   0.404204609680276 0


# Forces in Lattice coordinates:
force Mn   0.017955647442413   0.000272136410754   0.002506140619659 0
force Mn   0.001147494922566  -0.000338248949190  -0.000588512540086 0
force Mn   0.001364130376339  -0.000999812313948  -0.005256628918187 0
force Mn   0.012170674680234  -0.000813931837711   0.003134557106176 0
force Mn  -0.004909049473130   0.000015120822118   0.000483397669893 0
force Mn  -0.015466294714969  -0.000640484209155  -0.003769477906258 0
force Sb   0.003150427196723  -0.147700530815784   0.297479134043957 0
force Sb   0.004581702350499   0.146204870639631  -0.298090351523058 0
force Sb   0.000936126970464  -0.148736292643691   0.299312448596817 0
force Sb   0.002170953573790   0.149469304742171  -0.298376705467994 0
force Sb  -0.001973772282312  -0.147173953779536   0.298984749441743 0
force Sb  -0.001016083974998   0.148727447225492  -0.299278765377345 0
force Se  -0.003893601527362  -0.060502702131178  -0.280385459727763 0
force Se  -0.000232122594743   0.024166782955736   0.961520241356447 0
force Se  -0.005995451148938   0.060458290640927   0.281731808564878 0
force Se   0.000204060200257  -0.022874387300240  -0.962164751780474 0
force Se  -0.004195502172730  -0.060874895899233  -0.281312220227236 0
force Se  -0.000481691823979   0.021837009081162   0.963250575871426 0
force Se  -0.006179629972763   0.060775354957146   0.281799308164286 0
force Se   0.000284493954714  -0.021804592104662  -0.962776884117301 0
force Se  -0.002828230155974  -0.061036468465262  -0.281571723616976 0
force Se  -0.000677426669628   0.021912185767701   0.961797440950949 0
force Se  -0.005739420195777   0.060422019253681   0.280962714049559 0
force Se  -0.000365329297933  -0.022953949981604  -0.960849855044449 0
force I  -0.000267837227673   0.198674092323242  -0.783990518693632 0
force I   0.000714919863482  -0.198691029067636   0.783461456667914 0
force I  -0.001037136620794   0.198912727217860  -0.785074413341253 0
force I   0.000178024756813  -0.198738328466992   0.784659240203455 0
force I  -0.002672536276033   0.198667864139849  -0.783813786565814 0
force I  -0.001790309377810  -0.198415744201201   0.783736453058843 0

# Energy components:
   A_diel =       -0.0050388888097119
   Eewald =     5182.3596755047428815
       EH =     6309.1366972830755913
     Eloc =   -13104.7166774396973778
      Enl =      211.2855133729177055
      Exc =     -534.2292599659269854
 Exc_core =      335.1620229305255521
       KE =      289.3476337834345031
-------------------------------------
     Etot =    -1311.6594334197384342
       TS =        0.1255509112066016
-------------------------------------
        F =    -1311.7849843309450080

IonicMinimize: Iter:   0  F: -1311.784984330945008  |grad|_K:  0.000e+00  t[s]:   1737.43
IonicMinimize: Converged (|grad|_K<1.000000e-04).

#--- Lowdin population analysis ---
# oxidation-state Mn -0.725 -0.594 -0.724 -0.596 -0.731 -0.592
# oxidation-state Sb +0.618 +0.618 +0.618 +0.618 +0.618 +0.618
# oxidation-state Se +0.139 -0.026 +0.139 -0.026 +0.139 -0.026 +0.139 -0.026 +0.139 -0.026 +0.139 -0.026
# oxidation-state I +0.138 +0.138 +0.138 +0.138 +0.138 +0.138


Dumping 'NbTe2.fillings' ... done
Dumping 'NbTe2.wfns' ... done
Dumping 'NbTe2.fluidState' ... done
Dumping 'NbTe2.eigenvals' ... done
End date and time: Sun Jul 12 17:04:48 2020  (Duration: 0-0:29:00.05)
Done!
