
*************** JDFTx 1.5.0  ***************

Start date and time: Wed Jan  6 06:11:50 2021
Executable jdftx_gpu with command-line: -i Charged.in -o Charged.out
Running on hosts (process indices):  amax (0-4)
Divided in process groups (process indices):  0 (0)  1 (1)  2 (2)  3 (3)  4 (4)
gpuInit: Found compatible cuda device 0 'Tesla K80'
gpuInit: Found compatible cuda device 1 'Tesla K80'
gpuInit: Found compatible cuda device 2 'Tesla K80'
gpuInit: Found compatible cuda device 3 'Tesla K80'
gpuInit: Found compatible cuda device 4 'Tesla K80'
gpuInit: Selected device 0
Resource initialization completed at t[s]:      3.32
Run totals: 5 processes, 24 threads, 5 GPUs


Input parsed successfully to the following command list (including defaults):

basis kpoint-dependent
cache-projectors no
coords-type Lattice
core-overlap-check none
coulomb-interaction Slab 001
coulomb-truncation-embed 0.5 0.5 0.5
davidson-band-ratio 1.1
dump End State
dump-name NbTe2.$VAR
elec-cutoff 20
elec-eigen-algo Davidson
elec-ex-corr gga-PBE
elec-initial-charge 0.500000
elec-initial-magnetization 10.000000 no
elec-smearing Gauss 0.0073499
electronic-minimize  \
	dirUpdateScheme      FletcherReeves \
	linminMethod         DirUpdateRecommended \
	nIterations          200 \
	history              15 \
	knormThreshold       0 \
	energyDiffThreshold  1e-08 \
	nEnergyDiff          2 \
	alphaTstart          1 \
	alphaTmin            1e-10 \
	updateTestStepSize   yes \
	alphaTreduceFactor   0.1 \
	alphaTincreaseFactor 3 \
	nAlphaAdjustMax      3 \
	wolfeEnergy          0.0001 \
	wolfeGradient        0.9 \
	fdTest               no
exchange-regularization WignerSeitzTruncated
fluid LinearPCM 298.000000 1.013250
fluid-anion F- 1 MeanFieldLJ \
	epsBulk 1 \
	pMol 0 \
	epsInf 1 \
	Pvap 0 \
	sigmaBulk 0 \
	Rvdw 2.24877 \
	Res 0 \
	tauNuc 343133
fluid-cation Na+ 1 MeanFieldLJ \
	epsBulk 1 \
	pMol 0 \
	epsInf 1 \
	Pvap 0 \
	sigmaBulk 0 \
	Rvdw 2.19208 \
	Res 0 \
	tauNuc 343133
fluid-ex-corr lda-TF lda-PZ
fluid-gummel-loop 10 1.000000e-05
fluid-minimize  \
	dirUpdateScheme      PolakRibiere \
	linminMethod         DirUpdateRecommended \
	nIterations          400 \
	history              15 \
	knormThreshold       1e-11 \
	energyDiffThreshold  0 \
	nEnergyDiff          2 \
	alphaTstart          1 \
	alphaTmin            1e-10 \
	updateTestStepSize   yes \
	alphaTreduceFactor   0.1 \
	alphaTincreaseFactor 3 \
	nAlphaAdjustMax      6 \
	wolfeEnergy          0.0001 \
	wolfeGradient        0.9 \
	fdTest               no
fluid-solvent H2O 55.338 ScalarEOS \
	epsBulk 78.4 \
	pMol 0.92466 \
	epsInf 1.77 \
	Pvap 1.06736e-10 \
	sigmaBulk 4.62e-05 \
	Rvdw 2.61727 \
	Res 1.42 \
	tauNuc 343133 \
	poleEl 15 7 1
forces-output-coords Positions
initial-state NbTe2.$VAR
ion C   0.166666531632309   0.083333455367686   0.566561437114040 1
ion C   0.083333474604824   0.166666526395179   0.433443722749172 1
ion C   0.416666550632307   0.083333455367686   0.566561437114040 1
ion C   0.333333483604822   0.166666526395179   0.433443722749172 1
ion C   0.666666550632307   0.083333455367686   0.566561437114040 1
ion C   0.583333444604822   0.166666526395179   0.433443722749172 1
ion C   0.916666550632307   0.083333455367686   0.566561437114040 1
ion C   0.833333522604821   0.166666526395179   0.433443722749172 1
ion C   0.166666536632313   0.333333465367687   0.566561437114040 1
ion C   0.083333478604825   0.416666536395173   0.433443722749172 1
ion C   0.416666536632313   0.333333465367687   0.566561437114040 1
ion C   0.333333488604825   0.416666536395173   0.433443722749172 1
ion C   0.666666536632313   0.333333465367687   0.566561437114040 1
ion C   0.583333430604821   0.416666536395173   0.433443722749172 1
ion C   0.916666575632313   0.333333465367687   0.566561437114040 1
ion C   0.833333469604820   0.416666536395173   0.433443722749172 1
ion C   0.166666543632310   0.583333440367689   0.566561437114040 1
ion C   0.083333487604822   0.666666534395173   0.433443722749172 1
ion C   0.416666543632310   0.583333440367689   0.566561437114040 1
ion C   0.333333487604822   0.666666534395173   0.433443722749172 1
ion C   0.666666543632310   0.583333440367689   0.566561437114040 1
ion C   0.583333448604822   0.666666534395173   0.433443722749172 1
ion C   0.916666582632310   0.583333440367689   0.566561437114040 1
ion C   0.833333487604822   0.666666534395173   0.433443722749172 1
ion C   0.166666500632310   0.833333394367692   0.566561437114040 1
ion C   0.083333489604822   0.916666578395177   0.433443722749172 1
ion C   0.416666500632310   0.833333394367692   0.566561437114040 1
ion C   0.333333489604822   0.916666578395177   0.433443722749172 1
ion C   0.666666500632310   0.833333394367692   0.566561437114040 1
ion C   0.583333451604826   0.916666578395177   0.433443722749172 1
ion C   0.916666539632310   0.833333394367692   0.566561437114040 1
ion C   0.833333489604822   0.916666578395177   0.433443722749172 1
ion Ti  -0.000000006430495   0.000000006430495   0.499998022656401 1
ion Ti   0.083332914315182   0.166667086684822   0.618881398774232 1
ion Ti   0.166667065878178   0.083332921121817   0.381118601225768 1
ion Ti   0.249999993569505   0.000000006430495   0.499998022656401 1
ion Ti   0.333332923315179   0.166667086684822   0.618881398774232 1
ion Ti   0.416667084878176   0.083332921121817   0.381118601225768 1
ion Ti   0.499999993569505   0.000000006430495   0.499998022656401 1
ion Ti   0.583332884315179   0.166667086684822   0.618881398774232 1
ion Ti   0.666667084878176   0.083332921121817   0.381118601225768 1
ion Ti   0.750000032569505   0.000000006430495   0.499998022656401 1
ion Ti   0.833332962315179   0.166667086684822   0.618881398774232 1
ion Ti   0.916667084878176   0.083332921121817   0.381118601225768 1
ion Ti   0.999999992569509   0.250000004430495   0.499998022656401 1
ion Ti   0.083332918315182   0.416667096684816   0.618881398774232 1
ion Ti   0.166667070878182   0.333332931121818   0.381118601225768 1
ion Ti   0.249999992569509   0.250000004430495   0.499998022656401 1
ion Ti   0.333332928315183   0.416667096684816   0.618881398774232 1
ion Ti   0.416667070878182   0.333332931121818   0.381118601225768 1
ion Ti   0.500000012569503   0.250000004430495   0.499998022656401 1
ion Ti   0.583332870315178   0.416667096684816   0.618881398774232 1
ion Ti   0.666667070878182   0.333332931121818   0.381118601225768 1
ion Ti   0.750000051569503   0.250000004430495   0.499998022656401 1
ion Ti   0.833332909315178   0.416667096684816   0.618881398774232 1
ion Ti   0.916667109878182   0.333332931121818   0.381118601225768 1
ion Ti   0.999999991569505   0.500000003430498   0.499998022656401 1
ion Ti   0.083332927315179   0.666667094684816   0.618881398774232 1
ion Ti   0.166667077878179   0.583332906121820   0.381118601225768 1
ion Ti   0.249999991569505   0.500000003430498   0.499998022656401 1
ion Ti   0.333332927315179   0.666667094684816   0.618881398774232 1
ion Ti   0.416667077878179   0.583332906121820   0.381118601225768 1
ion Ti   0.499999991569505   0.500000003430498   0.499998022656401 1
ion Ti   0.583332888315179   0.666667094684816   0.618881398774232 1
ion Ti   0.666667077878179   0.583332906121820   0.381118601225768 1
ion Ti   0.750000030569505   0.500000003430498   0.499998022656401 1
ion Ti   0.833332927315179   0.666667094684816   0.618881398774232 1
ion Ti   0.916667116878179   0.583332906121820   0.381118601225768 1
ion Ti   0.999999971569503   0.750000001430498   0.499998022656401 1
ion Ti   0.083332929315179   0.916667138684819   0.618881398774232 1
ion Ti   0.166667034878179   0.833332860121823   0.381118601225768 1
ion Ti   0.249999971569503   0.750000001430498   0.499998022656401 1
ion Ti   0.333332929315179   0.916667138684819   0.618881398774232 1
ion Ti   0.416667034878179   0.833332860121823   0.381118601225768 1
ion Ti   0.499999971569503   0.750000001430498   0.499998022656401 1
ion Ti   0.583332891315183   0.916667138684819   0.618881398774232 1
ion Ti   0.666667034878179   0.833332860121823   0.381118601225768 1
ion Ti   0.750000010569503   0.750000001430498   0.499998022656401 1
ion Ti   0.833332929315179   0.916667138684819   0.618881398774232 1
ion Ti   0.916667073878179   0.833332860121823   0.381118601225768 1
ion-species GBRV/$ID_pbe.uspp
ion-width Ecut
ionic-minimize  \
	dirUpdateScheme      L-BFGS \
	linminMethod         DirUpdateRecommended \
	nIterations          500 \
	history              15 \
	knormThreshold       0.0001 \
	energyDiffThreshold  1e-06 \
	nEnergyDiff          2 \
	alphaTstart          1 \
	alphaTmin            1e-10 \
	updateTestStepSize   yes \
	alphaTreduceFactor   0.1 \
	alphaTincreaseFactor 3 \
	nAlphaAdjustMax      3 \
	wolfeEnergy          0.0001 \
	wolfeGradient        0.9 \
	fdTest               no
kpoint   0.000000000000   0.000000000000   0.000000000000  1.00000000000000
kpoint-folding 5 5 1 
latt-move-scale 1 1 1
latt-scale 1.88973 1.88973 1.88973 
lattice Triclinic 12.239 12.239 19.6623 90 90 120
lattice-minimize  \
	dirUpdateScheme      L-BFGS \
	linminMethod         DirUpdateRecommended \
	nIterations          0 \
	history              15 \
	knormThreshold       0 \
	energyDiffThreshold  1e-06 \
	nEnergyDiff          2 \
	alphaTstart          1 \
	alphaTmin            1e-10 \
	updateTestStepSize   yes \
	alphaTreduceFactor   0.1 \
	alphaTincreaseFactor 3 \
	nAlphaAdjustMax      3 \
	wolfeEnergy          0.0001 \
	wolfeGradient        0.9 \
	fdTest               no
lcao-params -1 1e-06 0.0073499
pcm-variant CANDLE
spintype z-spin
subspace-rotation-factor 1 yes
symmetries automatic
symmetry-threshold 0.0001



---------- Setting up symmetries ----------

Found 24 point-group symmetries of the bravais lattice
Found 192 space-group symmetries with basis
Applied RMS atom displacement 6.57349e-05 bohrs to make symmetries exact.

---------- Initializing the Grid ----------
R = 
[    23.1284   -11.5642          0  ]
[          0    20.0297          0  ]
[          0          0    37.1564  ]
unit cell volume = 17212.9
G =
[   0.271666   0.156846         -0  ]
[          0   0.313693          0  ]
[          0         -0   0.169101  ]
Minimum fftbox size, Smin = [  96  96  152  ]
Chosen fftbox size, S = [  96  96  160  ]

---------- Exchange Correlation functional ----------
Initalized PBE GGA exchange.
Initalized PBE GGA correlation.

---------- Setting up pseudopotentials ----------
Width of ionic core gaussian charges (only for fluid interactions / plotting) set to 0.397384

Reading pseudopotential file '/home/guoxy/vasp/jdftx-1.5.0/build/pseudopotentials/GBRV/c_pbe.uspp':
  Title: C.  Created by USPP 7.3.6 on 3-2-2014
  Reference state energy: -5.406344.  4 valence electrons in orbitals:
    |200>  occupation: 2  eigenvalue: -0.504890
    |210>  occupation: 2  eigenvalue: -0.194356
  lMax: 1  lLocal: 2  QijEcut: 5
  4 projectors sampled on a log grid with 503 points:
    l: 0  eig: -0.504890  rCut: 1.3
    l: 0  eig: 0.000000  rCut: 1.3
    l: 1  eig: -0.194357  rCut: 1.3
    l: 1  eig: 0.000000  rCut: 1.3
  Partial core density with radius 1.1
  Transforming core density to a uniform radial grid of dG=0.02 with 1474 points.
  Transforming local potential to a uniform radial grid of dG=0.02 with 1474 points.
  Transforming nonlocal projectors to a uniform radial grid of dG=0.02 with 432 points.
  Transforming density augmentations to a uniform radial grid of dG=0.02 with 1474 points.
  Transforming atomic orbitals to a uniform radial grid of dG=0.02 with 432 points.
  Core radius for overlap checks: 1.30 bohrs.

Reading pseudopotential file '/home/guoxy/vasp/jdftx-1.5.0/build/pseudopotentials/GBRV/ti_pbe.uspp':
  Title: Ti.  Created by USPP 7.3.6 on 31-3-15
  Reference state energy: -59.020943.  12 valence electrons in orbitals:
    |300>  occupation: 2  eigenvalue: -2.777623
    |310>  occupation: 6  eigenvalue: -1.894596
    |400>  occupation: 2  eigenvalue: -0.438610
    |320>  occupation: 1  eigenvalue: -0.583119
  lMax: 2  lLocal: 3  QijEcut: 6
  6 projectors sampled on a log grid with 597 points:
    l: 0  eig: -2.777624  rCut: 1.8
    l: 0  eig: -0.438611  rCut: 1.8
    l: 1  eig: -1.894596  rCut: 1.8
    l: 1  eig: 0.500000  rCut: 1.8
    l: 2  eig: -0.583118  rCut: 1.8
    l: 2  eig: 0.150000  rCut: 1.8
  Partial core density with radius 0.8
  Transforming core density to a uniform radial grid of dG=0.02 with 1474 points.
  Transforming local potential to a uniform radial grid of dG=0.02 with 1474 points.
  Transforming nonlocal projectors to a uniform radial grid of dG=0.02 with 432 points.
  Transforming density augmentations to a uniform radial grid of dG=0.02 with 1474 points.
  Transforming atomic orbitals to a uniform radial grid of dG=0.02 with 432 points.
  Core radius for overlap checks: 1.80 bohrs.

Initialized 2 species with 80 total atoms.

Folded 1 k-points by 5x5x1 to 25 k-points.

---------- Setting up k-points, bands, fillings ----------
Adding inversion symmetry to k-mesh for non-inversion-symmetric unit cell.
Reduced to 5 k-points under symmetry. 
Computing the number of bands and number of electrons
Calculating initial fillings.
nElectrons: 704.500000   nBands: 608   nStates: 10

----- Setting up reduced wavefunction bases (one per k-point) -----
average nbasis = 73534.680 , ideal nbasis = 73534.700

---------- Setting up coulomb interaction ----------
Fluid mode embedding: using embedded box, but periodic Coulomb kernel.
(Fluid response is responsible for (approximate) separation between periodic images.)
Setting up double-sized grid for truncated Coulomb potentials:
R = 
[    23.1284   -11.5642          0  ]
[          0    20.0297          0  ]
[          0          0    74.3127  ]
unit cell volume = 34425.7
G =
[   0.271666   0.156846         -0  ]
[          0   0.313693          0  ]
[          0         -0  0.0845506  ]
Chosen fftbox size, S = [  96  96  320  ]
Integer grid location selected as the embedding center:
   Grid: [  48  48  80  ]
   Lattice: [  0.5  0.5  0.5  ]
   Cartesian: [  5.78209  10.0149  18.5782  ]
Constructing Wigner-Seitz cell: 8 faces (6 quadrilaterals, 2 hexagons)
Range-separation parameter for embedded mesh potentials due to point charges: 0.619223 bohrs.

Initializing van der Waals corrections
	NOTE: vdW corrections apply only for interactions with fluid.
	 C:  C6:   30.35 Eh-a0^6  R0: 2.744 a0
	Ti:  C6:  187.33 Eh-a0^6  R0: 2.952 a0

---------- Setting up ewald sum ----------
Optimum gaussian width for ewald sums = 6.252056 bohr.
Real space sum over 405 unit cells with max indices [  4  4  2  ]
Reciprocal space sum over 8775 terms with max indices [  7  7  19  ]

---------- Allocating electronic variables ----------
Initializing wave functions:  linear combination of atomic orbitals
C pseudo-atom occupations:   s ( 2 )  p ( 2 )
Ti pseudo-atom occupations:   s ( 2 0 )  p ( 6 )  d ( 4 )
	FillingsUpdate:  mu: +0.100119951  nElectrons: 704.500000  magneticMoment: [ Abs: 8.96409  Tot: +8.96384 ]
LCAOMinimize: Iter:   0  F: -2527.4594964291659380  |grad|_K:  9.351e-02  alpha:  1.000e+00
LCAOMinimize: 	Step increased F by 6.415534e+02, reducing alpha to 4.862014e-02.
	FillingsUpdate:  mu: +0.749666836  nElectrons: 704.500000  magneticMoment: [ Abs: 8.38303  Tot: +8.37928 ]
LCAOMinimize: Iter:   1  F: -2698.3692357505819928  |grad|_K:  1.247e-02  alpha:  4.862e-02  linmin: -2.524e-02  cgtest: -4.204e+00  t[s]:    396.63
LCAOMinimize: 	Wrong curvature in test step, increasing alphaT to 1.458604e-01.
	FillingsUpdate:  mu: +0.667004438  nElectrons: 704.500000  magneticMoment: [ Abs: 6.02419  Tot: +6.02372 ]
LCAOMinimize: Iter:   2  F: -2731.3814963071854436  |grad|_K:  1.620e-02  alpha: -6.114e-01  linmin: -1.414e-01  cgtest:  7.113e-01  t[s]:    496.02
LCAOMinimize: 	Step increased F by 3.015327e+02, reducing alpha to 3.851963e-02.
	FillingsUpdate:  mu: +0.595157282  nElectrons: 704.500000  magneticMoment: [ Abs: 5.38481  Tot: +5.37223 ]
LCAOMinimize: Iter:   3  F: -2875.5634388119069627  |grad|_K:  2.032e-02  alpha:  3.852e-02  linmin: -3.127e-01  cgtest:  3.842e-01  t[s]:    668.33
	FillingsUpdate:  mu: -0.486825147  nElectrons: 704.500000  magneticMoment: [ Abs: 3.71179  Tot: +3.57822 ]
LCAOMinimize: Iter:   4  F: -2904.7469021530660029  |grad|_K:  2.333e-02  alpha:  2.303e-02  linmin: -2.121e-03  cgtest: -6.649e-01  t[s]:    768.97
LCAOMinimize: 	Wrong curvature in test step, increasing alphaT to 6.909317e-02.
	FillingsUpdate:  mu: +0.026770328  nElectrons: 704.500000  magneticMoment: [ Abs: 3.18425  Tot: +3.17966 ]
LCAOMinimize: Iter:   5  F: -2960.7235935653334309  |grad|_K:  4.199e-03  alpha: -7.472e-02  linmin: -2.010e-03  cgtest:  2.164e+00  t[s]:    867.37
LCAOMinimize: Encountered beta<0, resetting CG.
	FillingsUpdate:  mu: +0.116317593  nElectrons: 704.500000  magneticMoment: [ Abs: 3.00488  Tot: +2.99722 ]
LCAOMinimize: Iter:   6  F: -2965.4858232236201729  |grad|_K:  3.715e-03  alpha:  7.042e-02  linmin: -1.805e-01  cgtest:  7.459e-01  t[s]:    968.47
LCAOMinimize: 	Wrong curvature in test step, increasing alphaT to 2.112714e-01.
	FillingsUpdate:  mu: +0.194229756  nElectrons: 704.500000  magneticMoment: [ Abs: 2.64501  Tot: +2.61045 ]
LCAOMinimize: Iter:   7  F: -2969.9246265172068888  |grad|_K:  3.070e-03  alpha: -6.542e-01  linmin: -2.299e-01  cgtest:  7.097e-01  t[s]:   1068.00
	FillingsUpdate:  mu: +0.240839324  nElectrons: 704.500000  magneticMoment: [ Abs: 2.42122  Tot: +2.33041 ]
LCAOMinimize: Iter:   8  F: -2972.2261853114623591  |grad|_K:  2.300e-03  alpha:  5.985e-02  linmin: -2.918e-01  cgtest:  8.326e-01  t[s]:   1169.67
LCAOMinimize: Encountered beta<0, resetting CG.
LCAOMinimize: 	Predicted alpha/alphaT>3.000000, increasing alphaT to 1.795590e-01.
	FillingsUpdate:  mu: +0.346951817  nElectrons: 704.500000  magneticMoment: [ Abs: 2.06723  Tot: +1.88448 ]
LCAOMinimize: Iter:   9  F: -2974.0415389052759565  |grad|_K:  2.591e-03  alpha:  2.211e-01  linmin:  1.282e-01  cgtest: -2.033e-01  t[s]:   1300.38
	FillingsUpdate:  mu: +0.344862349  nElectrons: 704.500000  magneticMoment: [ Abs: 2.03151  Tot: +1.84106 ]
LCAOMinimize: Iter:  10  F: -2974.1308448118511478  |grad|_K:  2.634e-03  alpha:  2.251e-02  linmin: -9.104e-03  cgtest:  9.727e-01  t[s]:   1401.31
	FillingsUpdate:  mu: +0.312180796  nElectrons: 704.500000  magneticMoment: [ Abs: 2.06505  Tot: +1.88289 ]
LCAOMinimize: Iter:  11  F: -2974.9530527671013260  |grad|_K:  2.397e-04  alpha:  6.193e-02  linmin: -2.088e-01  cgtest:  5.574e-01  t[s]:   1502.92
LCAOMinimize: Encountered beta<0, resetting CG.
LCAOMinimize: 	Predicted alpha/alphaT>3.000000, increasing alphaT to 1.857820e-01.
	FillingsUpdate:  mu: +0.292824797  nElectrons: 704.500000  magneticMoment: [ Abs: 1.86069  Tot: +1.66855 ]
LCAOMinimize: Iter:  12  F: -2974.9750202218715458  |grad|_K:  2.827e-04  alpha:  2.063e-01  linmin:  1.033e-03  cgtest: -3.983e-03  t[s]:   1633.55
	FillingsUpdate:  mu: +0.283488655  nElectrons: 704.500000  magneticMoment: [ Abs: 1.36876  Tot: +1.15170 ]
LCAOMinimize: Iter:  13  F: -2975.0049243196731368  |grad|_K:  6.611e-05  alpha:  2.028e-01  linmin:  5.600e-03  cgtest:  1.013e-02  t[s]:   1735.28
	FillingsUpdate:  mu: +0.286309607  nElectrons: 704.500000  magneticMoment: [ Abs: 0.95052  Tot: +0.74964 ]
LCAOMinimize: Iter:  14  F: -2975.0092514763555300  |grad|_K:  3.878e-05  alpha:  5.402e-01  linmin:  4.550e-03  cgtest: -1.956e-03  t[s]:   1835.95
	FillingsUpdate:  mu: +0.286617732  nElectrons: 704.500000  magneticMoment: [ Abs: 0.79535  Tot: +0.60912 ]
LCAOMinimize: Iter:  15  F: -2975.0098506124013511  |grad|_K:  3.373e-05  alpha:  2.147e-01  linmin: -1.456e-03  cgtest:  2.642e-02  t[s]:   1937.47
	FillingsUpdate:  mu: +0.288094187  nElectrons: 704.500000  magneticMoment: [ Abs: 0.70505  Tot: +0.52971 ]
LCAOMinimize: Iter:  16  F: -2975.0100581379078903  |grad|_K:  5.532e-06  alpha:  9.705e-02  linmin: -2.519e-03  cgtest: -6.219e-02  t[s]:   2038.88
LCAOMinimize: 	Predicted alpha/alphaT>3.000000, increasing alphaT to 2.911620e-01.
LCAOMinimize: 	Predicted alpha/alphaT>3.000000, increasing alphaT to 8.734861e-01.
	FillingsUpdate:  mu: +0.287950327  nElectrons: 704.500000  magneticMoment: [ Abs: 0.30223  Tot: +0.19760 ]
LCAOMinimize: Iter:  17  F: -2975.0101187120844770  |grad|_K:  7.039e-06  alpha:  1.063e+00  linmin:  4.796e-04  cgtest: -3.156e-03  t[s]:   2199.20
	FillingsUpdate:  mu: +0.288130413  nElectrons: 704.500000  magneticMoment: [ Abs: 0.21695  Tot: +0.12864 ]
LCAOMinimize: Iter:  18  F: -2975.0101288549944911  |grad|_K:  4.628e-06  alpha:  1.119e-01  linmin:  3.683e-03  cgtest: -1.526e-02  t[s]:   2300.58
	FillingsUpdate:  mu: +0.287945501  nElectrons: 704.500000  magneticMoment: [ Abs: 0.10525  Tot: +0.04055 ]
LCAOMinimize: Iter:  19  F: -2975.0101388673501788  |grad|_K:  2.516e-06  alpha:  2.550e-01  linmin: -4.750e-05  cgtest:  3.415e-02  t[s]:   2401.66
	FillingsUpdate:  mu: +0.287959970  nElectrons: 704.500000  magneticMoment: [ Abs: 0.04725  Tot: -0.04682 ]
LCAOMinimize: Iter:  20  F: -2975.0101470595836872  |grad|_K:  1.463e-06  alpha:  6.975e-01  linmin: -1.700e-04  cgtest: -1.374e-02  t[s]:   2502.18
	FillingsUpdate:  mu: +0.287925444  nElectrons: 704.500000  magneticMoment: [ Abs: 0.04966  Tot: -0.04923 ]
LCAOMinimize: Iter:  21  F: -2975.0101473478362095  |grad|_K:  4.122e-07  alpha:  7.252e-02  linmin: -2.376e-04  cgtest:  3.363e-04  t[s]:   2603.54
LCAOMinimize: 	Predicted alpha/alphaT>3.000000, increasing alphaT to 2.175526e-01.
	FillingsUpdate:  mu: +0.287974158  nElectrons: 704.500000  magneticMoment: [ Abs: 0.04584  Tot: -0.04400 ]
LCAOMinimize: Iter:  22  F: -2975.0101475480787485  |grad|_K:  3.135e-07  alpha:  6.327e-01  linmin: -2.210e-03  cgtest:  6.426e-03  t[s]:   2734.98
LCAOMinimize: Converged (|Delta F|<1.000000e-06 for 2 iters).
----- createFluidSolver() ----- (Fluid-side solver setup)
   Initializing fluid molecule 'H2O'
     Initializing site 'O'
       Electron density: proportional to exp(-r/0.36935)*erfc((r-0.51523)/0.36823) with norm 6.826
       Charge density: gaussian nuclear width 0.478731 with net site charge 0.826
       Polarizability: cuspless exponential with width 0.32 and norm 3.73
       Hard sphere radius: 2.57003 bohrs
       Positions in reference frame:
         [ +0.000000 +0.000000 +0.000000 ]
     Initializing site 'H'
       Electron density: proportional to exp(-r/0.34641)*erfc((r-0)/0.390882) with norm 0.587
       Charge density: gaussian nuclear width 0.377945 with net site charge -0.413
       Polarizability: cuspless exponential with width 0.39 and norm 3.3
       Positions in reference frame:
         [ +0.000000 -1.441945 +1.122523 ]
         [ +0.000000 +1.441945 +1.122523 ]
     Net charge: 0   dipole magnitude: 0.927204
     Initializing spherical shell mfKernel with radius 2.61727 Bohr
     deltaS corrections:
       site 'O': -7.54299
       site 'H': -6.83917
   Initializing fluid molecule 'Na+'
     Initializing site 'Na'
       Electron density: proportional to exp(-r/0.19682)*erfc((r-0.71491)/0.41314) with norm 8.1383
       Charge density: gaussian nuclear width 0.365347 with net site charge -1
       Hard sphere radius: 1.86327 bohrs
       Positions in reference frame:
         [ +0.000000 +0.000000 +0.000000 ]
     Net charge: -1   dipole magnitude: 0
     Initializing gaussian mfKernel with width: 1.55004 Bohr
     deltaS corrections:
       site 'Na': -22.3555
   Initializing fluid molecule 'F-'
     Initializing site 'F'
       Electron density: proportional to exp(-r/0.38886)*erfc((r-0)/0.438782) with norm 8
       Charge density: gaussian nuclear width 0.374796 with net site charge 1
       Hard sphere radius: 2.39995 bohrs
       Positions in reference frame:
         [ +0.000000 +0.000000 +0.000000 ]
     Net charge: 1   dipole magnitude: 0
     Initializing gaussian mfKernel with width: 1.59012 Bohr
     deltaS corrections:
       site 'F': -9.04335

Correction to mu due to finite nuclear width = -0.0202903
   Cavity determined by nc: 0.00142 and sigma: 0.707107
   Nonlocal vdW cavity from gaussian model electron density with norm = 8 and sigma = 0.993594 bohr
   Charge asymmetry in cavity with sensitivity pCavity = 36.5 e-bohr/Eh
   Electrostatic cavity expanded by eta = 1.46 bohrs
   Weighted density cavitation model constrained by Nbulk: 0.0049383 bohr^-3, Pvap: 3.14029 kPa, Rvdw: 2.61727 bohr and sigmaBulk: 4.62e-05 Eh/bohr^2 at T: 298 K.
   Weighted density dispersion model using vdW pair potentials with single solvent site with sqrtC6eff: 0.77 SI.


---- Citations for features of the code used in this run ----

   Software package:
      R. Sundararaman, K. Letchworth-Weaver, K.A. Schwarz, D. Gunceler, Y. Ozhabes and T.A. Arias, 'JDFTx: software for joint density-functional theory', SoftwareX 6, 278 (2017)

   gga-PBE exchange-correlation functional:
      J.P. Perdew, K. Burke and M. Ernzerhof, Phys. Rev. Lett. 77, 3865 (1996)

   Pseudopotentials:
      KF Garrity, JW Bennett, KM Rabe and D Vanderbilt, Comput. Mater. Sci. 81, 446 (2014)

   Truncated Coulomb potentials:
      R. Sundararaman and T.A. Arias, Phys. Rev. B 87, 165122 (2013)

   Van der Waals correction pair-potentials:
      S. Grimme, J. Comput. Chem. 27, 1787 (2006)

   Charge-asymmetric nonlocally-determined local-electric (CANDLE) solvation model:
      R. Sundararaman and W.A. Goddard III, J. Chem. Phys. 142, 064107 (2015)

   Total energy minimization with Auxiliary Hamiltonian:
      C. Freysoldt, S. Boeck, and J. Neugebauer, Phys. Rev. B 79, 241103(R) (2009)

This list may not be complete. Please suggest additional citations or
report any other bugs at https://github.com/shankar1729/jdftx/issues

Initialization completed successfully at t[s]:   2752.95

Fluid solver invoked on fresh (partially random / LCAO) wavefunctions
Running a vacuum solve first:

-------- Initial electronic minimization -----------
	FillingsUpdate:  mu: +0.287974158  nElectrons: 704.500000  magneticMoment: [ Abs: 0.04584  Tot: -0.04400 ]
ElecMinimize: Iter:   0  F: -2975.010147548069654  |grad|_K:  1.650e-04  alpha:  1.000e+00
	FillingsUpdate:  mu: +0.116007194  nElectrons: 704.500000  magneticMoment: [ Abs: 0.04423  Tot: -0.04173 ]
	SubspaceRotationAdjust: set factor to 1
ElecMinimize: Iter:   1  F: -2979.509875841958092  |grad|_K:  9.505e-05  alpha:  3.736e-01  linmin:  7.423e-05  t[s]:   2995.01
	FillingsUpdate:  mu: +0.118722899  nElectrons: 704.500000  magneticMoment: [ Abs: 0.03122  Tot: -0.02736 ]
	SubspaceRotationAdjust: set factor to 0.795
ElecMinimize: Iter:   2  F: -2981.622087225510768  |grad|_K:  6.385e-05  alpha:  5.256e-01  linmin: -2.265e-04  t[s]:   3145.07
	FillingsUpdate:  mu: +0.112185163  nElectrons: 704.500000  magneticMoment: [ Abs: 0.02292  Tot: -0.01860 ]
	SubspaceRotationAdjust: set factor to 0.499
ElecMinimize: Iter:   3  F: -2982.396611811910589  |grad|_K:  7.210e-05  alpha:  4.181e-01  linmin: -1.108e-04  t[s]:   3294.67
	FillingsUpdate:  mu: +0.052937283  nElectrons: 704.500000  magneticMoment: [ Abs: 0.01938  Tot: -0.01482 ]
	SubspaceRotationAdjust: set factor to 0.32
ElecMinimize: Iter:   4  F: -2982.695597489388092  |grad|_K:  3.504e-05  alpha:  1.411e-01  linmin:  7.817e-04  t[s]:   3445.60
ElecMinimize: 	Predicted alpha/alphaT>3.000000, increasing alphaT to 4.232347e-01.
	FillingsUpdate:  mu: +0.005603090  nElectrons: 704.500000  magneticMoment: [ Abs: 0.01498  Tot: -0.01069 ]
	SubspaceRotationAdjust: set factor to 0.347
ElecMinimize: Iter:   5  F: -2982.963197217337438  |grad|_K:  2.440e-05  alpha:  5.262e-01  linmin:  2.141e-04  t[s]:   3638.78
	FillingsUpdate:  mu: +0.014989493  nElectrons: 704.500000  magneticMoment: [ Abs: 0.01384  Tot: -0.00998 ]
	SubspaceRotationAdjust: set factor to 0.285
ElecMinimize: Iter:   6  F: -2983.055896962684074  |grad|_K:  1.699e-05  alpha:  3.590e-01  linmin:  2.537e-07  t[s]:   3789.65
	FillingsUpdate:  mu: +0.017024459  nElectrons: 704.500000  magneticMoment: [ Abs: 0.01310  Tot: -0.00980 ]
	SubspaceRotationAdjust: set factor to 0.33
ElecMinimize: Iter:   7  F: -2983.113852218124066  |grad|_K:  1.292e-05  alpha:  4.482e-01  linmin:  9.432e-06  t[s]:   3940.25
	FillingsUpdate:  mu: +0.012658223  nElectrons: 704.500000  magneticMoment: [ Abs: 0.01233  Tot: -0.00971 ]
	SubspaceRotationAdjust: set factor to 0.345
ElecMinimize: Iter:   8  F: -2983.150102762147071  |grad|_K:  8.088e-06  alpha:  4.875e-01  linmin:  1.083e-05  t[s]:   4091.03
	FillingsUpdate:  mu: +0.014016402  nElectrons: 704.500000  magneticMoment: [ Abs: 0.01193  Tot: -0.00980 ]
	SubspaceRotationAdjust: set factor to 0.331
ElecMinimize: Iter:   9  F: -2983.163105976953375  |grad|_K:  7.548e-06  alpha:  4.450e-01  linmin:  1.312e-06  t[s]:   4242.38
	FillingsUpdate:  mu: +0.010022677  nElectrons: 704.500000  magneticMoment: [ Abs: 0.01158  Tot: -0.01006 ]
	SubspaceRotationAdjust: set factor to 0.353
ElecMinimize: Iter:  10  F: -2983.174191426293419  |grad|_K:  4.531e-06  alpha:  4.339e-01  linmin:  4.369e-06  t[s]:   4392.71
	FillingsUpdate:  mu: +0.008511909  nElectrons: 704.500000  magneticMoment: [ Abs: 0.01153  Tot: -0.01040 ]
	SubspaceRotationAdjust: set factor to 0.411
ElecMinimize: Iter:  11  F: -2983.178852658151754  |grad|_K:  3.663e-06  alpha:  5.073e-01  linmin:  9.158e-07  t[s]:   4543.54
	FillingsUpdate:  mu: +0.007781485  nElectrons: 704.500000  magneticMoment: [ Abs: 0.01165  Tot: -0.01078 ]
	SubspaceRotationAdjust: set factor to 0.391
ElecMinimize: Iter:  12  F: -2983.181425201521051  |grad|_K:  2.958e-06  alpha:  4.272e-01  linmin:  5.476e-07  t[s]:   4693.87
	FillingsUpdate:  mu: +0.004978128  nElectrons: 704.500000  magneticMoment: [ Abs: 0.01187  Tot: -0.01116 ]
	SubspaceRotationAdjust: set factor to 0.316
ElecMinimize: Iter:  13  F: -2983.182833363235659  |grad|_K:  2.269e-06  alpha:  3.585e-01  linmin:  1.197e-06  t[s]:   4844.89
	FillingsUpdate:  mu: +0.005273691  nElectrons: 704.500000  magneticMoment: [ Abs: 0.01225  Tot: -0.01165 ]
	SubspaceRotationAdjust: set factor to 0.403
ElecMinimize: Iter:  14  F: -2983.183948058770056  |grad|_K:  1.350e-06  alpha:  4.830e-01  linmin:  1.983e-06  t[s]:   4995.55
	FillingsUpdate:  mu: +0.005720856  nElectrons: 704.500000  magneticMoment: [ Abs: 0.01254  Tot: -0.01196 ]
	SubspaceRotationAdjust: set factor to 0.398
ElecMinimize: Iter:  15  F: -2983.184366164845414  |grad|_K:  1.186e-06  alpha:  5.114e-01  linmin:  7.527e-07  t[s]:   5147.65
	FillingsUpdate:  mu: +0.004842510  nElectrons: 704.500000  magneticMoment: [ Abs: 0.01286  Tot: -0.01226 ]
	SubspaceRotationAdjust: set factor to 0.35
ElecMinimize: Iter:  16  F: -2983.184607614603010  |grad|_K:  9.059e-07  alpha:  3.822e-01  linmin:  4.999e-07  t[s]:   5298.69
	FillingsUpdate:  mu: +0.004960622  nElectrons: 704.500000  magneticMoment: [ Abs: 0.01322  Tot: -0.01258 ]
	SubspaceRotationAdjust: set factor to 0.376
ElecMinimize: Iter:  17  F: -2983.184764217348402  |grad|_K:  6.949e-07  alpha:  4.254e-01  linmin:  1.086e-06  t[s]:   5450.16
	FillingsUpdate:  mu: +0.005006333  nElectrons: 704.500000  magneticMoment: [ Abs: 0.01368  Tot: -0.01297 ]
	SubspaceRotationAdjust: set factor to 0.446
ElecMinimize: Iter:  18  F: -2983.184880922252432  |grad|_K:  4.603e-07  alpha:  5.394e-01  linmin:  2.655e-06  t[s]:   5600.85
	FillingsUpdate:  mu: +0.004851613  nElectrons: 704.500000  magneticMoment: [ Abs: 0.01408  Tot: -0.01330 ]
	SubspaceRotationAdjust: set factor to 0.455
ElecMinimize: Iter:  19  F: -2983.184927495782631  |grad|_K:  4.258e-07  alpha:  4.908e-01  linmin:  5.431e-07  t[s]:   5751.39
	FillingsUpdate:  mu: +0.005021849  nElectrons: 704.500000  magneticMoment: [ Abs: 0.01450  Tot: -0.01366 ]
	SubspaceRotationAdjust: set factor to 0.375
ElecMinimize: Iter:  20  F: -2983.184955733385323  |grad|_K:  3.169e-07  alpha:  3.470e-01  linmin:  7.155e-08  t[s]:   5902.93
	FillingsUpdate:  mu: +0.004873660  nElectrons: 704.500000  magneticMoment: [ Abs: 0.01496  Tot: -0.01405 ]
	SubspaceRotationAdjust: set factor to 0.36
ElecMinimize: Iter:  21  F: -2983.184972173845836  |grad|_K:  2.089e-07  alpha:  3.648e-01  linmin:  3.352e-07  t[s]:   6053.47
	FillingsUpdate:  mu: +0.004952097  nElectrons: 704.500000  magneticMoment: [ Abs: 0.01553  Tot: -0.01455 ]
	SubspaceRotationAdjust: set factor to 0.44
ElecMinimize: Iter:  22  F: -2983.184983008060044  |grad|_K:  1.513e-07  alpha:  5.539e-01  linmin:  5.775e-07  t[s]:   6203.88
	FillingsUpdate:  mu: +0.005069677  nElectrons: 704.500000  magneticMoment: [ Abs: 0.01601  Tot: -0.01497 ]
	SubspaceRotationAdjust: set factor to 0.441
ElecMinimize: Iter:  23  F: -2983.184987817173806  |grad|_K:  1.255e-07  alpha:  4.686e-01  linmin:  1.095e-07  t[s]:   6356.10
	FillingsUpdate:  mu: +0.005004687  nElectrons: 704.500000  magneticMoment: [ Abs: 0.01649  Tot: -0.01540 ]
	SubspaceRotationAdjust: set factor to 0.383
ElecMinimize: Iter:  24  F: -2983.184990426391778  |grad|_K:  1.021e-07  alpha:  3.693e-01  linmin:  6.540e-08  t[s]:   6505.59
	FillingsUpdate:  mu: +0.005015649  nElectrons: 704.500000  magneticMoment: [ Abs: 0.01705  Tot: -0.01591 ]
	SubspaceRotationAdjust: set factor to 0.426
ElecMinimize: Iter:  25  F: -2983.184992229034833  |grad|_K:  6.745e-08  alpha:  3.854e-01  linmin:  1.045e-07  t[s]:   6657.32
	FillingsUpdate:  mu: +0.005004416  nElectrons: 704.500000  magneticMoment: [ Abs: 0.01767  Tot: -0.01647 ]
	SubspaceRotationAdjust: set factor to 0.499
ElecMinimize: Iter:  26  F: -2983.184993278196544  |grad|_K:  5.026e-08  alpha:  5.141e-01  linmin:  2.188e-07  t[s]:   6807.90
	FillingsUpdate:  mu: +0.004996143  nElectrons: 704.500000  magneticMoment: [ Abs: 0.01830  Tot: -0.01706 ]
	SubspaceRotationAdjust: set factor to 0.565
ElecMinimize: Iter:  27  F: -2983.184993840132847  |grad|_K:  3.769e-08  alpha:  4.961e-01  linmin:  1.204e-07  t[s]:   6959.67
	FillingsUpdate:  mu: +0.005004665  nElectrons: 704.500000  magneticMoment: [ Abs: 0.01887  Tot: -0.01759 ]
	SubspaceRotationAdjust: set factor to 0.514
ElecMinimize: Iter:  28  F: -2983.184994086375809  |grad|_K:  3.568e-08  alpha:  3.864e-01  linmin:  1.516e-08  t[s]:   7109.89
	FillingsUpdate:  mu: +0.004979866  nElectrons: 704.500000  magneticMoment: [ Abs: 0.01946  Tot: -0.01814 ]
	SubspaceRotationAdjust: set factor to 0.395
ElecMinimize: Iter:  29  F: -2983.184994239510161  |grad|_K:  2.341e-08  alpha:  2.679e-01  linmin:  5.068e-09  t[s]:   7258.20
	FillingsUpdate:  mu: +0.004989151  nElectrons: 704.500000  magneticMoment: [ Abs: 0.02021  Tot: -0.01883 ]
	SubspaceRotationAdjust: set factor to 0.438
ElecMinimize: Iter:  30  F: -2983.184994343559538  |grad|_K:  1.649e-08  alpha:  4.228e-01  linmin:  2.560e-08  t[s]:   7408.12
	FillingsUpdate:  mu: +0.004993417  nElectrons: 704.500000  magneticMoment: [ Abs: 0.02102  Tot: -0.01959 ]
	SubspaceRotationAdjust: set factor to 0.515
ElecMinimize: Iter:  31  F: -2983.184994408084094  |grad|_K:  1.213e-08  alpha:  5.290e-01  linmin:  7.327e-08  t[s]:   7559.25
	FillingsUpdate:  mu: +0.004983933  nElectrons: 704.500000  magneticMoment: [ Abs: 0.02172  Tot: -0.02024 ]
	SubspaceRotationAdjust: set factor to 0.5
ElecMinimize: Iter:  32  F: -2983.184994437009664  |grad|_K:  1.102e-08  alpha:  4.387e-01  linmin:  1.579e-08  t[s]:   7709.87
	FillingsUpdate:  mu: +0.004988056  nElectrons: 704.500000  magneticMoment: [ Abs: 0.02243  Tot: -0.02091 ]
	SubspaceRotationAdjust: set factor to 0.439
ElecMinimize: Iter:  33  F: -2983.184994454535627  |grad|_K:  8.866e-09  alpha:  3.210e-01  linmin:  5.120e-08  t[s]:   7860.62
	FillingsUpdate:  mu: +0.004987197  nElectrons: 704.500000  magneticMoment: [ Abs: 0.02335  Tot: -0.02177 ]
	SubspaceRotationAdjust: set factor to 0.489
ElecMinimize: Iter:  34  F: -2983.184994468113473  |grad|_K:  6.065e-09  alpha:  3.838e-01  linmin: -8.899e-08  t[s]:   8011.80
	FillingsUpdate:  mu: +0.004989782  nElectrons: 704.500000  magneticMoment: [ Abs: 0.02443  Tot: -0.02278 ]
	SubspaceRotationAdjust: set factor to 0.573
ElecMinimize: Iter:  35  F: -2983.184994477248893  |grad|_K:  4.718e-09  alpha:  5.520e-01  linmin: -1.952e-07  t[s]:   8163.13
	FillingsUpdate:  mu: +0.004990388  nElectrons: 704.500000  magneticMoment: [ Abs: 0.02550  Tot: -0.02377 ]
	SubspaceRotationAdjust: set factor to 0.669
ElecMinimize: Iter:  36  F: -2983.184994482131970  |grad|_K:  4.016e-09  alpha:  4.908e-01  linmin:  1.716e-07  t[s]:   8314.13
ElecMinimize: Converged (|Delta F|<1.000000e-08 for 2 iters).
Setting wave functions to eigenvectors of Hamiltonian
Vacuum energy after initial minimize, F = -2983.184994482131970

	Linear fluid (dielectric constant: 78.4, screening length: 5.74355 Bohr) occupying 0.694626 of unit cell:	Completed after 16 iterations at t[s]:   8345.03

-------- Electronic minimization -----------
	Linear fluid (dielectric constant: 78.4, screening length: 5.74355 Bohr) occupying 0.694626 of unit cell:	Completed after 0 iterations at t[s]:   8378.60
	FillingsUpdate:  mu: -0.141206550  nElectrons: 704.500000  magneticMoment: [ Abs: 0.02753  Tot: -0.02574 ]
ElecMinimize: Iter:   0  F: -2983.235740215120586  |grad|_K:  1.327e-06  alpha:  1.000e+00
	Linear fluid (dielectric constant: 78.4, screening length: 5.74355 Bohr) occupying 0.694663 of unit cell:	Completed after 10 iterations at t[s]:   8496.89
	Linear fluid (dielectric constant: 78.4, screening length: 5.74355 Bohr) occupying 0.694631 of unit cell:	Completed after 11 iterations at t[s]:   8546.19
	FillingsUpdate:  mu: -0.142702354  nElectrons: 704.500000  magneticMoment: [ Abs: 0.02772  Tot: -0.02592 ]
	SubspaceRotationAdjust: set factor to 0.484
ElecMinimize: Iter:   1  F: -2983.235840325705340  |grad|_K:  6.677e-07  alpha:  1.271e-01  linmin:  1.100e-06  t[s]:   8609.92
	Linear fluid (dielectric constant: 78.4, screening length: 5.74355 Bohr) occupying 0.694709 of unit cell:	Completed after 2 iterations at t[s]:   8658.79
ElecMinimize: 	Predicted alpha/alphaT>3.000000, increasing alphaT to 3.813879e-01.
	Linear fluid (dielectric constant: 78.4, screening length: 5.74355 Bohr) occupying 0.694861 of unit cell:	Completed after 6 iterations at t[s]:   8704.24
	Linear fluid (dielectric constant: 78.4, screening length: 5.74355 Bohr) occupying 0.694920 of unit cell:	Completed after 3 iterations at t[s]:   8751.97
	FillingsUpdate:  mu: -0.143537321  nElectrons: 704.500000  magneticMoment: [ Abs: 0.02871  Tot: -0.02678 ]
	SubspaceRotationAdjust: set factor to 0.437
ElecMinimize: Iter:   2  F: -2983.235936684424360  |grad|_K:  5.277e-07  alpha:  4.829e-01  linmin: -2.260e-07  t[s]:   8813.74
	Linear fluid (dielectric constant: 78.4, screening length: 5.74355 Bohr) occupying 0.695347 of unit cell:	Completed after 5 iterations at t[s]:   8862.24
	Linear fluid (dielectric constant: 78.4, screening length: 5.74355 Bohr) occupying 0.695446 of unit cell:	Completed after 2 iterations at t[s]:   8909.28
	FillingsUpdate:  mu: -0.143075404  nElectrons: 704.500000  magneticMoment: [ Abs: 0.03031  Tot: -0.02818 ]
	SubspaceRotationAdjust: set factor to 0.651
ElecMinimize: Iter:   3  F: -2983.236011884284835  |grad|_K:  3.342e-07  alpha:  5.975e-01  linmin: -2.673e-07  t[s]:   8971.41
	Linear fluid (dielectric constant: 78.4, screening length: 5.74355 Bohr) occupying 0.695781 of unit cell:	Completed after 8 iterations at t[s]:   9020.95
	Linear fluid (dielectric constant: 78.4, screening length: 5.74355 Bohr) occupying 0.695690 of unit cell:	Completed after 6 iterations at t[s]:   9068.99
	FillingsUpdate:  mu: -0.142303111  nElectrons: 704.500000  magneticMoment: [ Abs: 0.03133  Tot: -0.02912 ]
	SubspaceRotationAdjust: set factor to 0.449
ElecMinimize: Iter:   4  F: -2983.236033505663272  |grad|_K:  2.852e-07  alpha:  4.343e-01  linmin: -6.843e-07  t[s]:   9131.73
	Linear fluid (dielectric constant: 78.4, screening length: 5.74355 Bohr) occupying 0.695858 of unit cell:	Completed after 6 iterations at t[s]:   9181.17
	Linear fluid (dielectric constant: 78.4, screening length: 5.74355 Bohr) occupying 0.695756 of unit cell:	Completed after 5 iterations at t[s]:   9228.48
	FillingsUpdate:  mu: -0.142439471  nElectrons: 704.500000  magneticMoment: [ Abs: 0.03194  Tot: -0.02971 ]
	SubspaceRotationAdjust: set factor to 0.233
ElecMinimize: Iter:   5  F: -2983.236039851824444  |grad|_K:  1.450e-07  alpha:  1.693e-01  linmin:  4.320e-08  t[s]:   9291.30
	Linear fluid (dielectric constant: 78.4, screening length: 5.74355 Bohr) occupying 0.695777 of unit cell:	Completed after 0 iterations at t[s]:   9339.85
ElecMinimize: 	Predicted alpha/alphaT>3.000000, increasing alphaT to 5.079570e-01.
	Linear fluid (dielectric constant: 78.4, screening length: 5.74355 Bohr) occupying 0.695818 of unit cell:	Completed after 2 iterations at t[s]:   9385.69
	Linear fluid (dielectric constant: 78.4, screening length: 5.74355 Bohr) occupying 0.695853 of unit cell:	Completed after 2 iterations at t[s]:   9432.54
	FillingsUpdate:  mu: -0.142319901  nElectrons: 704.500000  magneticMoment: [ Abs: 0.03376  Tot: -0.03149 ]
	SubspaceRotationAdjust: set factor to 0.282
ElecMinimize: Iter:   6  F: -2983.236047317001976  |grad|_K:  1.218e-07  alpha:  7.945e-01  linmin:  6.169e-07  t[s]:   9494.13
	Linear fluid (dielectric constant: 78.4, screening length: 5.74355 Bohr) occupying 0.695920 of unit cell:	Completed after 5 iterations at t[s]:   9543.44
	Linear fluid (dielectric constant: 78.4, screening length: 5.74355 Bohr) occupying 0.695896 of unit cell:	Completed after 2 iterations at t[s]:   9590.70
	FillingsUpdate:  mu: -0.142209522  nElectrons: 704.500000  magneticMoment: [ Abs: 0.03494  Tot: -0.03264 ]
	SubspaceRotationAdjust: set factor to 0.28
ElecMinimize: Iter:   7  F: -2983.236050541913755  |grad|_K:  9.426e-08  alpha:  5.017e-01  linmin: -1.634e-07  t[s]:   9653.06
	Linear fluid (dielectric constant: 78.4, screening length: 5.74355 Bohr) occupying 0.695907 of unit cell:	Completed after 3 iterations at t[s]:   9701.51
	Linear fluid (dielectric constant: 78.4, screening length: 5.74355 Bohr) occupying 0.695911 of unit cell:	Completed after 0 iterations at t[s]:   9748.26
	FillingsUpdate:  mu: -0.142291140  nElectrons: 704.500000  magneticMoment: [ Abs: 0.03644  Tot: -0.03407 ]
	SubspaceRotationAdjust: set factor to 0.287
ElecMinimize: Iter:   8  F: -2983.236053137313320  |grad|_K:  7.063e-08  alpha:  6.350e-01  linmin: -9.453e-06  t[s]:   9809.67
	Linear fluid (dielectric constant: 78.4, screening length: 5.74355 Bohr) occupying 0.695907 of unit cell:	Completed after 2 iterations at t[s]:   9858.74
	Linear fluid (dielectric constant: 78.4, screening length: 5.74355 Bohr) occupying 0.695908 of unit cell:	Completed after 2 iterations at t[s]:   9905.50
	FillingsUpdate:  mu: -0.142377221  nElectrons: 704.500000  magneticMoment: [ Abs: 0.03745  Tot: -0.03502 ]
	SubspaceRotationAdjust: set factor to 0.33
ElecMinimize: Iter:   9  F: -2983.236054148213952  |grad|_K:  5.212e-08  alpha:  4.460e-01  linmin: -2.186e-06  t[s]:   9967.53
	Linear fluid (dielectric constant: 78.4, screening length: 5.74355 Bohr) occupying 0.695903 of unit cell:	Completed after 2 iterations at t[s]:  10015.93
	Linear fluid (dielectric constant: 78.4, screening length: 5.74355 Bohr) occupying 0.695902 of unit cell:	Completed after 0 iterations at t[s]:  10062.88
	FillingsUpdate:  mu: -0.142393822  nElectrons: 704.500000  magneticMoment: [ Abs: 0.03861  Tot: -0.03610 ]
	SubspaceRotationAdjust: set factor to 0.331
ElecMinimize: Iter:  10  F: -2983.236054807873188  |grad|_K:  3.711e-08  alpha:  5.172e-01  linmin: -4.438e-06  t[s]:  10124.48
	Linear fluid (dielectric constant: 78.4, screening length: 5.74355 Bohr) occupying 0.695895 of unit cell:	Completed after 2 iterations at t[s]:  10173.40
	Linear fluid (dielectric constant: 78.4, screening length: 5.74355 Bohr) occupying 0.695897 of unit cell:	Completed after 0 iterations at t[s]:  10219.86
	FillingsUpdate:  mu: -0.142388248  nElectrons: 704.500000  magneticMoment: [ Abs: 0.03954  Tot: -0.03696 ]
	SubspaceRotationAdjust: set factor to 0.349
ElecMinimize: Iter:  11  F: -2983.236055074738942  |grad|_K:  3.097e-08  alpha:  4.043e-01  linmin:  1.878e-06  t[s]:  10281.18
	Linear fluid (dielectric constant: 78.4, screening length: 5.74355 Bohr) occupying 0.695891 of unit cell:	Completed after 0 iterations at t[s]:  10329.69
	Linear fluid (dielectric constant: 78.4, screening length: 5.74355 Bohr) occupying 0.695889 of unit cell:	Completed after 0 iterations at t[s]:  10375.56
	FillingsUpdate:  mu: -0.142387378  nElectrons: 704.500000  magneticMoment: [ Abs: 0.04105  Tot: -0.03836 ]
	SubspaceRotationAdjust: set factor to 0.383
ElecMinimize: Iter:  12  F: -2983.236055298758401  |grad|_K:  2.226e-08  alpha:  5.475e-01  linmin:  5.233e-08  t[s]:  10437.21
	Linear fluid (dielectric constant: 78.4, screening length: 5.74355 Bohr) occupying 0.695883 of unit cell:	Completed after 2 iterations at t[s]:  10486.41
	Linear fluid (dielectric constant: 78.4, screening length: 5.74355 Bohr) occupying 0.695887 of unit cell:	Completed after 0 iterations at t[s]:  10532.96
ElecMinimize: 	Step increased F by 8.782081e-09, reducing alpha to 1.692034e-02.
	Linear fluid (dielectric constant: 78.4, screening length: 5.74355 Bohr) occupying 0.695888 of unit cell:	Completed after 1 iterations at t[s]:  10632.58
ElecMinimize: 	Step increased F by 4.753656e-08, reducing alpha to 1.692034e-03.
	Linear fluid (dielectric constant: 78.4, screening length: 5.74355 Bohr) occupying 0.695888 of unit cell:	Completed after 0 iterations at t[s]:  10732.76
ElecMinimize: 	Step increased F by 5.004404e-08, reducing alpha to 1.692034e-04.
ElecMinimize: 	Step failed to reduce F after 3 attempts. Quitting step.
ElecMinimize: 	Undoing step.
	Linear fluid (dielectric constant: 78.4, screening length: 5.74355 Bohr) occupying 0.695888 of unit cell:	Completed after 0 iterations at t[s]:  10831.68
ElecMinimize: 	Step failed: resetting search direction.
	FillingsUpdate:  mu: -0.142381832  nElectrons: 704.500000  magneticMoment: [ Abs: 0.04106  Tot: -0.03836 ]
	SubspaceRotationAdjust: set factor to 0.387
ElecMinimize: Iter:  13  F: -2983.236055248827142  |grad|_K:  2.184e-08  alpha:  1.692e-04
	Linear fluid (dielectric constant: 78.4, screening length: 5.74355 Bohr) occupying 0.695886 of unit cell:	Completed after 2 iterations at t[s]:  10942.17
	Linear fluid (dielectric constant: 78.4, screening length: 5.74355 Bohr) occupying 0.695887 of unit cell:	Completed after 0 iterations at t[s]:  10988.14
	FillingsUpdate:  mu: -0.142393779  nElectrons: 704.500000  magneticMoment: [ Abs: 0.04154  Tot: -0.03881 ]
	SubspaceRotationAdjust: set factor to 0.312
ElecMinimize: Iter:  14  F: -2983.236055317075170  |grad|_K:  1.594e-08  alpha:  3.486e-01  linmin:  1.294e-05  t[s]:  11049.26
	Linear fluid (dielectric constant: 78.4, screening length: 5.74355 Bohr) occupying 0.695885 of unit cell:	Completed after 0 iterations at t[s]:  11097.99
	Linear fluid (dielectric constant: 78.4, screening length: 5.74355 Bohr) occupying 0.695884 of unit cell:	Completed after 1 iterations at t[s]:  11144.21
	FillingsUpdate:  mu: -0.142386807  nElectrons: 704.500000  magneticMoment: [ Abs: 0.04294  Tot: -0.04010 ]
	SubspaceRotationAdjust: set factor to 0.263
ElecMinimize: Iter:  15  F: -2983.236055340966232  |grad|_K:  1.508e-08  alpha:  6.550e-01  linmin:  4.479e-05  t[s]:  11205.75
	Linear fluid (dielectric constant: 78.4, screening length: 5.74355 Bohr) occupying 0.695881 of unit cell:	Completed after 0 iterations at t[s]:  11255.03
	Linear fluid (dielectric constant: 78.4, screening length: 5.74355 Bohr) occupying 0.695882 of unit cell:	Completed after 0 iterations at t[s]:  11301.14
	FillingsUpdate:  mu: -0.142392315  nElectrons: 704.500000  magneticMoment: [ Abs: 0.04396  Tot: -0.04104 ]
	SubspaceRotationAdjust: set factor to 0.326
ElecMinimize: Iter:  16  F: -2983.236055351510458  |grad|_K:  1.158e-08  alpha:  3.307e-01  linmin: -9.261e-06  t[s]:  11362.55
	Linear fluid (dielectric constant: 78.4, screening length: 5.74355 Bohr) occupying 0.695882 of unit cell:	Completed after 0 iterations at t[s]:  11411.63
	Linear fluid (dielectric constant: 78.4, screening length: 5.74355 Bohr) occupying 0.695881 of unit cell:	Completed after 0 iterations at t[s]:  11456.99
	FillingsUpdate:  mu: -0.142392050  nElectrons: 704.500000  magneticMoment: [ Abs: 0.04514  Tot: -0.04213 ]
	SubspaceRotationAdjust: set factor to 0.423
ElecMinimize: Iter:  17  F: -2983.236055378618858  |grad|_K:  1.013e-08  alpha:  4.158e-01  linmin: -8.051e-07  t[s]:  11518.16
	Linear fluid (dielectric constant: 78.4, screening length: 5.74355 Bohr) occupying 0.695881 of unit cell:	Completed after 0 iterations at t[s]:  11566.58
	Linear fluid (dielectric constant: 78.4, screening length: 5.74355 Bohr) occupying 0.695881 of unit cell:	Completed after 1 iterations at t[s]:  11612.34
ElecMinimize: 	Step increased F by 2.202114e-08, reducing alpha to 6.045270e-02.
	Linear fluid (dielectric constant: 78.4, screening length: 5.74355 Bohr) occupying 0.695881 of unit cell:	Completed after 0 iterations at t[s]:  11712.91
	FillingsUpdate:  mu: -0.142385573  nElectrons: 704.500000  magneticMoment: [ Abs: 0.04534  Tot: -0.04232 ]
	SubspaceRotationAdjust: set factor to 0.363
ElecMinimize: Iter:  18  F: -2983.236055387368197  |grad|_K:  1.446e-08  alpha:  6.045e-02  linmin:  1.293e-05  t[s]:  11774.07
	Linear fluid (dielectric constant: 78.4, screening length: 5.74355 Bohr) occupying 0.695881 of unit cell:	Completed after 0 iterations at t[s]:  11822.71
	Linear fluid (dielectric constant: 78.4, screening length: 5.74355 Bohr) occupying 0.695881 of unit cell:	Completed after 0 iterations at t[s]:  11868.31
	FillingsUpdate:  mu: -0.142385186  nElectrons: 704.500000  magneticMoment: [ Abs: 0.04663  Tot: -0.04351 ]
	SubspaceRotationAdjust: set factor to 0.454
ElecMinimize: Iter:  19  F: -2983.236055397474956  |grad|_K:  1.217e-08  alpha:  1.492e-01  linmin:  6.576e-07  t[s]:  11929.18
	Linear fluid (dielectric constant: 78.4, screening length: 5.74355 Bohr) occupying 0.695881 of unit cell:	Completed after 0 iterations at t[s]:  11978.17
	Linear fluid (dielectric constant: 78.4, screening length: 5.74355 Bohr) occupying 0.695881 of unit cell:	Completed after 0 iterations at t[s]:  12023.92
	FillingsUpdate:  mu: -0.142384936  nElectrons: 704.500000  magneticMoment: [ Abs: 0.04815  Tot: -0.04491 ]
	SubspaceRotationAdjust: set factor to 0.449
ElecMinimize: Iter:  20  F: -2983.236055410427525  |grad|_K:  1.190e-08  alpha:  1.999e-01  linmin:  4.539e-07  t[s]:  12085.41
	Linear fluid (dielectric constant: 78.4, screening length: 5.74355 Bohr) occupying 0.695880 of unit cell:	Completed after 1 iterations at t[s]:  12134.10
	Linear fluid (dielectric constant: 78.4, screening length: 5.74355 Bohr) occupying 0.695881 of unit cell:	Completed after 0 iterations at t[s]:  12179.91
ElecMinimize: 	Step increased F by 9.993073e-09, reducing alpha to 2.494454e-03.
	Linear fluid (dielectric constant: 78.4, screening length: 5.74355 Bohr) occupying 0.695881 of unit cell:	Completed after 0 iterations at t[s]:  12278.83
ElecMinimize: 	Step increased F by 2.929482e-09, reducing alpha to 2.494454e-04.
	Linear fluid (dielectric constant: 78.4, screening length: 5.74355 Bohr) occupying 0.695881 of unit cell:	Completed after 0 iterations at t[s]:  12378.02
ElecMinimize: 	Step increased F by 2.236902e-09, reducing alpha to 2.494454e-05.
ElecMinimize: 	Step failed to reduce F after 3 attempts. Quitting step.
ElecMinimize: 	Undoing step.
	Linear fluid (dielectric constant: 78.4, screening length: 5.74355 Bohr) occupying 0.695881 of unit cell:	Completed after 0 iterations at t[s]:  12477.79
ElecMinimize: 	Step failed: resetting search direction.
	FillingsUpdate:  mu: -0.142379351  nElectrons: 704.500000  magneticMoment: [ Abs: 0.04815  Tot: -0.04492 ]
	SubspaceRotationAdjust: set factor to 0.353
ElecMinimize: Iter:  21  F: -2983.236055408338871  |grad|_K:  2.217e-08  alpha:  2.494e-05
	Linear fluid (dielectric constant: 78.4, screening length: 5.74355 Bohr) occupying 0.695880 of unit cell:	Completed after 2 iterations at t[s]:  12587.72
	Linear fluid (dielectric constant: 78.4, screening length: 5.74355 Bohr) occupying 0.695880 of unit cell:	Completed after 0 iterations at t[s]:  12633.92
ElecMinimize: 	Step increased F by 1.473381e-10, reducing alpha to 7.502841e-03.
	Linear fluid (dielectric constant: 78.4, screening length: 5.74355 Bohr) occupying 0.695881 of unit cell:	Completed after 0 iterations at t[s]:  12732.86
	FillingsUpdate:  mu: -0.142379062  nElectrons: 704.500000  magneticMoment: [ Abs: 0.04817  Tot: -0.04493 ]
	SubspaceRotationAdjust: set factor to 0.184
ElecMinimize: Iter:  22  F: -2983.236055420731645  |grad|_K:  1.538e-08  alpha:  7.503e-03  linmin:  2.959e-04  t[s]:  12794.02
	Linear fluid (dielectric constant: 78.4, screening length: 5.74355 Bohr) occupying 0.695881 of unit cell:	Completed after 0 iterations at t[s]:  12842.87
ElecMinimize: 	Predicted alpha/alphaT>3.000000, increasing alphaT to 2.250852e-02.
	Linear fluid (dielectric constant: 78.4, screening length: 5.74355 Bohr) occupying 0.695881 of unit cell:	Completed after 0 iterations at t[s]:  12887.96
ElecMinimize: 	Predicted alpha/alphaT>3.000000, increasing alphaT to 6.752557e-02.
	Linear fluid (dielectric constant: 78.4, screening length: 5.74355 Bohr) occupying 0.695880 of unit cell:	Completed after 0 iterations at t[s]:  12933.27
ElecMinimize: 	Predicted alpha/alphaT>3.000000, increasing alphaT to 2.025767e-01.
	Linear fluid (dielectric constant: 78.4, screening length: 5.74355 Bohr) occupying 0.695880 of unit cell:	Completed after 0 iterations at t[s]:  12979.11
	FillingsUpdate:  mu: -0.142379530  nElectrons: 704.500000  magneticMoment: [ Abs: 0.04904  Tot: -0.04575 ]
	SubspaceRotationAdjust: set factor to 0.175
ElecMinimize: Iter:  23  F: -2983.236055447329363  |grad|_K:  1.237e-08  alpha:  3.754e-01  linmin: -1.341e-05  t[s]:  13040.56
	Linear fluid (dielectric constant: 78.4, screening length: 5.74355 Bohr) occupying 0.695879 of unit cell:	Completed after 2 iterations at t[s]:  13089.52
	Linear fluid (dielectric constant: 78.4, screening length: 5.74355 Bohr) occupying 0.695880 of unit cell:	Completed after 0 iterations at t[s]:  13136.27
ElecMinimize: 	Step increased F by 3.361038e-08, reducing alpha to 5.295754e-03.
	Linear fluid (dielectric constant: 78.4, screening length: 5.74355 Bohr) occupying 0.695880 of unit cell:	Completed after 0 iterations at t[s]:  13235.69
ElecMinimize: 	Step increased F by 1.894387e-08, reducing alpha to 5.295754e-04.
	Linear fluid (dielectric constant: 78.4, screening length: 5.74355 Bohr) occupying 0.695880 of unit cell:	Completed after 0 iterations at t[s]:  13334.64
ElecMinimize: 	Step increased F by 1.755916e-08, reducing alpha to 5.295754e-05.
ElecMinimize: 	Step failed to reduce F after 3 attempts. Quitting step.
ElecMinimize: 	Undoing step.
	Linear fluid (dielectric constant: 78.4, screening length: 5.74355 Bohr) occupying 0.695880 of unit cell:	Completed after 0 iterations at t[s]:  13433.87
ElecMinimize: 	Step failed: resetting search direction.
	FillingsUpdate:  mu: -0.142391712  nElectrons: 704.500000  magneticMoment: [ Abs: 0.04904  Tot: -0.04575 ]
	SubspaceRotationAdjust: set factor to 0.124
ElecMinimize: Iter:  24  F: -2983.236055429769749  |grad|_K:  2.528e-08  alpha:  5.296e-05
	Linear fluid (dielectric constant: 78.4, screening length: 5.74355 Bohr) occupying 0.695880 of unit cell:	Completed after 2 iterations at t[s]:  13543.39
	Linear fluid (dielectric constant: 78.4, screening length: 5.74355 Bohr) occupying 0.695880 of unit cell:	Completed after 0 iterations at t[s]:  13589.46
	FillingsUpdate:  mu: -0.142387869  nElectrons: 704.500000  magneticMoment: [ Abs: 0.04914  Tot: -0.04584 ]
	SubspaceRotationAdjust: set factor to 0.0653
	SubspaceRotationAdjust: resetting CG because factor has changed by 0.097638
	Linear fluid (dielectric constant: 78.4, screening length: 5.74355 Bohr) occupying 0.695880 of unit cell:	Completed after 0 iterations at t[s]:  13675.28
ElecMinimize: 	State modified externally: resetting search direction.
ElecMinimize: Iter:  25  F: -2983.236055450860476  |grad|_K:  1.748e-08  alpha:  1.323e-01
	Linear fluid (dielectric constant: 78.4, screening length: 5.74355 Bohr) occupying 0.695880 of unit cell:	Completed after 0 iterations at t[s]:  13784.71
ElecMinimize: 	Predicted alpha/alphaT>3.000000, increasing alphaT to 3.970266e-01.
	Linear fluid (dielectric constant: 78.4, screening length: 5.74355 Bohr) occupying 0.695880 of unit cell:	Completed after 1 iterations at t[s]:  13829.47
	Linear fluid (dielectric constant: 78.4, screening length: 5.74355 Bohr) occupying 0.695880 of unit cell:	Completed after 0 iterations at t[s]:  13875.36
ElecMinimize: 	Step increased F by 2.303022e-08, reducing alpha to 1.126694e-02.
	Linear fluid (dielectric constant: 78.4, screening length: 5.74355 Bohr) occupying 0.695880 of unit cell:	Completed after 0 iterations at t[s]:  13974.30
ElecMinimize: 	Step increased F by 8.931693e-09, reducing alpha to 1.126694e-03.
	Linear fluid (dielectric constant: 78.4, screening length: 5.74355 Bohr) occupying 0.695880 of unit cell:	Completed after 0 iterations at t[s]:  14073.51
ElecMinimize: 	Step increased F by 7.789822e-09, reducing alpha to 1.126694e-04.
ElecMinimize: 	Step failed to reduce F after 3 attempts. Quitting step.
ElecMinimize: 	Undoing step.
	Linear fluid (dielectric constant: 78.4, screening length: 5.74355 Bohr) occupying 0.695880 of unit cell:	Completed after 0 iterations at t[s]:  14172.71
ElecMinimize: 	Step failed along negative gradient direction.
ElecMinimize: Probably at roundoff error limit. (Stopping)
Setting wave functions to eigenvectors of Hamiltonian
Single-point solvation energy estimate, DeltaF = -0.051060960958239

# Ionic positions in lattice coordinates:
ion C   0.166666667591666   0.083333332433333   0.566559493686356 1
ion C   0.083333334258333   0.166666665766666   0.433441779321489 1
ion C   0.416666667591666   0.083333332433333   0.566559493686356 1
ion C   0.333333334258333   0.166666665766666   0.433441779321489 1
ion C   0.666666667591666   0.083333332433333   0.566559493686356 1
ion C   0.583333334258333   0.166666665766666   0.433441779321489 1
ion C   0.916666667591666   0.083333332433333   0.566559493686356 1
ion C   0.833333334258333   0.166666665766666   0.433441779321489 1
ion C   0.166666667591666   0.333333332433333   0.566559493686356 1
ion C   0.083333334258333   0.416666665766666   0.433441779321489 1
ion C   0.416666667591666   0.333333332433333   0.566559493686356 1
ion C   0.333333334258333   0.416666665766666   0.433441779321489 1
ion C   0.666666667591666   0.333333332433333   0.566559493686356 1
ion C   0.583333334258333   0.416666665766666   0.433441779321489 1
ion C   0.916666667591666   0.333333332433333   0.566559493686356 1
ion C   0.833333334258333   0.416666665766666   0.433441779321489 1
ion C   0.166666667591666   0.583333332433333   0.566559493686356 1
ion C   0.083333334258333   0.666666665766666   0.433441779321489 1
ion C   0.416666667591666   0.583333332433333   0.566559493686356 1
ion C   0.333333334258333   0.666666665766666   0.433441779321489 1
ion C   0.666666667591666   0.583333332433333   0.566559493686356 1
ion C   0.583333334258333   0.666666665766666   0.433441779321489 1
ion C   0.916666667591666   0.583333332433333   0.566559493686356 1
ion C   0.833333334258333   0.666666665766666   0.433441779321489 1
ion C   0.166666667591666   0.833333332433333   0.566559493686356 1
ion C   0.083333334258333   0.916666665766666   0.433441779321489 1
ion C   0.416666667591666   0.833333332433333   0.566559493686356 1
ion C   0.333333334258333   0.916666665766666   0.433441779321489 1
ion C   0.666666667591666   0.833333332433333   0.566559493686356 1
ion C   0.583333334258333   0.916666665766666   0.433441779321489 1
ion C   0.916666667591666   0.833333332433333   0.566559493686356 1
ion C   0.833333334258333   0.916666665766666   0.433441779321489 1
ion Ti   0.000000000924999  -0.000000000900000   0.500000636503923 1
ion Ti   0.083333334258333   0.166666665766666   0.618882035278155 1
ion Ti   0.166666667591666   0.083333332433333   0.381119237729690 1
ion Ti   0.250000000924999  -0.000000000900000   0.500000636503923 1
ion Ti   0.333333334258333   0.166666665766666   0.618882035278155 1
ion Ti   0.416666667591666   0.083333332433333   0.381119237729690 1
ion Ti   0.500000000924999  -0.000000000900000   0.500000636503923 1
ion Ti   0.583333334258333   0.166666665766666   0.618882035278155 1
ion Ti   0.666666667591666   0.083333332433333   0.381119237729690 1
ion Ti   0.750000000924999  -0.000000000900000   0.500000636503923 1
ion Ti   0.833333334258333   0.166666665766666   0.618882035278155 1
ion Ti   0.916666667591666   0.083333332433333   0.381119237729690 1
ion Ti   1.000000000924999   0.249999999100000   0.500000636503923 1
ion Ti   0.083333334258333   0.416666665766666   0.618882035278155 1
ion Ti   0.166666667591666   0.333333332433333   0.381119237729690 1
ion Ti   0.250000000924999   0.249999999100000   0.500000636503923 1
ion Ti   0.333333334258333   0.416666665766666   0.618882035278155 1
ion Ti   0.416666667591666   0.333333332433333   0.381119237729690 1
ion Ti   0.500000000924999   0.249999999100000   0.500000636503923 1
ion Ti   0.583333334258333   0.416666665766666   0.618882035278155 1
ion Ti   0.666666667591666   0.333333332433333   0.381119237729690 1
ion Ti   0.750000000924999   0.249999999100000   0.500000636503923 1
ion Ti   0.833333334258333   0.416666665766666   0.618882035278155 1
ion Ti   0.916666667591666   0.333333332433333   0.381119237729690 1
ion Ti   1.000000000924999   0.499999999100000   0.500000636503923 1
ion Ti   0.083333334258333   0.666666665766666   0.618882035278155 1
ion Ti   0.166666667591666   0.583333332433333   0.381119237729690 1
ion Ti   0.250000000924999   0.499999999100000   0.500000636503923 1
ion Ti   0.333333334258333   0.666666665766666   0.618882035278155 1
ion Ti   0.416666667591666   0.583333332433333   0.381119237729690 1
ion Ti   0.500000000924999   0.499999999100000   0.500000636503923 1
ion Ti   0.583333334258333   0.666666665766666   0.618882035278155 1
ion Ti   0.666666667591666   0.583333332433333   0.381119237729690 1
ion Ti   0.750000000924999   0.499999999100000   0.500000636503923 1
ion Ti   0.833333334258333   0.666666665766666   0.618882035278155 1
ion Ti   0.916666667591666   0.583333332433333   0.381119237729690 1
ion Ti   1.000000000924999   0.749999999100000   0.500000636503923 1
ion Ti   0.083333334258333   0.916666665766666   0.618882035278155 1
ion Ti   0.166666667591666   0.833333332433333   0.381119237729690 1
ion Ti   0.250000000924999   0.749999999100000   0.500000636503923 1
ion Ti   0.333333334258333   0.916666665766666   0.618882035278155 1
ion Ti   0.416666667591666   0.833333332433333   0.381119237729690 1
ion Ti   0.500000000924999   0.749999999100000   0.500000636503923 1
ion Ti   0.583333334258333   0.916666665766666   0.618882035278155 1
ion Ti   0.666666667591666   0.833333332433333   0.381119237729690 1
ion Ti   0.750000000924999   0.749999999100000   0.500000636503923 1
ion Ti   0.833333334258333   0.916666665766666   0.618882035278155 1
ion Ti   0.916666667591666   0.833333332433333   0.381119237729690 1


# Forces in Lattice coordinates:
force C  -0.000000000000000   0.000000000000000   0.037924597068358 1
force C   0.000000000000000  -0.000000000000000  -0.037924597069154 1
force C  -0.000000000000000   0.000000000000000   0.037924597068301 1
force C   0.000000000000000   0.000000000000000  -0.037924597069210 1
force C   0.000000000000000  -0.000000000000000   0.037924597068358 1
force C   0.000000000000000  -0.000000000000000  -0.037924597069154 1
force C  -0.000000000000000   0.000000000000000   0.037924597068358 1
force C   0.000000000000000  -0.000000000000000  -0.037924597069040 1
force C   0.000000000000000   0.000000000000000   0.037924597068358 1
force C   0.000000000000000  -0.000000000000000  -0.037924597069040 1
force C  -0.000000000000000   0.000000000000000   0.037924597068358 1
force C   0.000000000000000  -0.000000000000000  -0.037924597069211 1
force C   0.000000000000000   0.000000000000000   0.037924597068301 1
force C   0.000000000000000   0.000000000000000  -0.037924597068983 1
force C  -0.000000000000000   0.000000000000000   0.037924597068244 1
force C   0.000000000000000   0.000000000000000  -0.037924597069097 1
force C  -0.000000000000000  -0.000000000000000   0.037924597068358 1
force C   0.000000000000000  -0.000000000000000  -0.037924597069097 1
force C  -0.000000000000000   0.000000000000000   0.037924597068358 1
force C   0.000000000000000   0.000000000000000  -0.037924597069211 1
force C  -0.000000000000000   0.000000000000000   0.037924597068358 1
force C   0.000000000000000  -0.000000000000000  -0.037924597069154 1
force C   0.000000000000000  -0.000000000000000   0.037924597068301 1
force C   0.000000000000000  -0.000000000000000  -0.037924597069097 1
force C  -0.000000000000000   0.000000000000000   0.037924597068471 1
force C  -0.000000000000000  -0.000000000000000  -0.037924597069154 1
force C  -0.000000000000000   0.000000000000000   0.037924597068472 1
force C  -0.000000000000000   0.000000000000000  -0.037924597069097 1
force C  -0.000000000000000   0.000000000000000   0.037924597068358 1
force C  -0.000000000000000   0.000000000000000  -0.037924597069154 1
force C   0.000000000000000   0.000000000000000   0.037924597068301 1
force C   0.000000000000000  -0.000000000000000  -0.037924597069040 1
force Ti  -0.000000000000000  -0.000000000000000   0.000000000000000 1
force Ti  -0.000000000000000  -0.000000000000000   0.050478236448768 1
force Ti   0.000000000000000   0.000000000000000  -0.050478236450133 1
force Ti  -0.000000000000000   0.000000000000000   0.000000000000000 1
force Ti  -0.000000000000000   0.000000000000000   0.050478236449223 1
force Ti   0.000000000000000  -0.000000000000000  -0.050478236450587 1
force Ti   0.000000000000000  -0.000000000000000   0.000000000000000 1
force Ti   0.000000000000000   0.000000000000000   0.050478236448768 1
force Ti  -0.000000000000000   0.000000000000000  -0.050478236450133 1
force Ti  -0.000000000000000  -0.000000000000000  -0.000000000000000 1
force Ti   0.000000000000000   0.000000000000000   0.050478236448768 1
force Ti  -0.000000000000000   0.000000000000000  -0.050478236450133 1
force Ti  -0.000000000000000   0.000000000000000   0.000000000000000 1
force Ti   0.000000000000000  -0.000000000000000   0.050478236448768 1
force Ti   0.000000000000000  -0.000000000000000  -0.050478236450133 1
force Ti  -0.000000000000000   0.000000000000000   0.000000000000000 1
force Ti  -0.000000000000000   0.000000000000000   0.050478236448768 1
force Ti   0.000000000000000  -0.000000000000000  -0.050478236450133 1
force Ti  -0.000000000000000  -0.000000000000000  -0.000000000000000 1
force Ti   0.000000000000000   0.000000000000000   0.050478236448768 1
force Ti  -0.000000000000000  -0.000000000000000  -0.050478236450133 1
force Ti  -0.000000000000000  -0.000000000000000  -0.000000000000000 1
force Ti   0.000000000000000   0.000000000000000   0.050478236448768 1
force Ti  -0.000000000000000   0.000000000000000  -0.050478236450133 1
force Ti   0.000000000000000   0.000000000000000   0.000000000000000 1
force Ti  -0.000000000000000  -0.000000000000000   0.050478236448768 1
force Ti   0.000000000000000  -0.000000000000000  -0.050478236450133 1
force Ti   0.000000000000000   0.000000000000000  -0.000000000000000 1
force Ti  -0.000000000000000  -0.000000000000000   0.050478236448768 1
force Ti   0.000000000000000  -0.000000000000000  -0.050478236450133 1
force Ti   0.000000000000000   0.000000000000000  -0.000000000000000 1
force Ti   0.000000000000000  -0.000000000000000   0.050478236448768 1
force Ti  -0.000000000000000   0.000000000000000  -0.050478236450133 1
force Ti   0.000000000000000  -0.000000000000000  -0.000000000000000 1
force Ti  -0.000000000000000  -0.000000000000000   0.050478236448768 1
force Ti  -0.000000000000000  -0.000000000000000  -0.050478236450133 1
force Ti   0.000000000000000   0.000000000000000  -0.000000000000000 1
force Ti  -0.000000000000000   0.000000000000000   0.050478236448768 1
force Ti  -0.000000000000000  -0.000000000000000  -0.050478236450133 1
force Ti   0.000000000000000   0.000000000000000   0.000000000000000 1
force Ti   0.000000000000000  -0.000000000000000   0.050478236448768 1
force Ti   0.000000000000000  -0.000000000000000  -0.050478236450133 1
force Ti   0.000000000000000  -0.000000000000000  -0.000000000000000 1
force Ti  -0.000000000000000  -0.000000000000000   0.050478236448768 1
force Ti   0.000000000000000   0.000000000000000  -0.050478236450133 1
force Ti   0.000000000000000  -0.000000000000000   0.000000000000000 1
force Ti  -0.000000000000000  -0.000000000000000   0.050478236448768 1
force Ti  -0.000000000000000   0.000000000000000  -0.050478236450133 1

# Energy components:
   A_diel =       -0.0412343693625991
   Eewald =    27007.0763048521403107
       EH =    29509.7278702730582154
     Eloc =   -60068.0333900245968834
      Enl =      286.5275568428380666
      Exc =     -491.9158186481479333
 Exc_core =       63.9311056479802602
       KE =      709.7261592468461231
  MuShift =       -0.0101451606757226
-------------------------------------
     Etot =    -2983.0115913399222336
       TS =        0.2244641031681550
-------------------------------------
        F =    -2983.2360554430902084

IonicMinimize: Iter:   0  F: -2983.236055443090208  |grad|_K:  6.205e-04  t[s]:  14263.44

#--- Lowdin population analysis ---
# oxidation-state C -1.108 -1.108 -1.108 -1.108 -1.108 -1.108 -1.108 -1.108 -1.108 -1.108 -1.108 -1.108 -1.108 -1.108 -1.108 -1.108 -1.108 -1.108 -1.108 -1.108 -1.108 -1.108 -1.108 -1.108 -1.108 -1.108 -1.108 -1.108 -1.108 -1.108 -1.108 -1.108
# magnetic-moments C +0.000 +0.000 +0.000 +0.000 +0.000 +0.000 +0.000 +0.000 +0.000 +0.000 +0.000 +0.000 +0.000 +0.000 +0.000 +0.000 +0.000 +0.000 +0.000 +0.000 +0.000 +0.000 +0.000 +0.000 +0.000 +0.000 +0.000 +0.000 +0.000 +0.000 +0.000 +0.000
# oxidation-state Ti +1.082 +0.865 +0.865 +1.082 +0.865 +0.865 +1.082 +0.865 +0.865 +1.082 +0.865 +0.865 +1.082 +0.865 +0.865 +1.082 +0.865 +0.865 +1.082 +0.865 +0.865 +1.082 +0.865 +0.865 +1.082 +0.865 +0.865 +1.082 +0.865 +0.865 +1.082 +0.865 +0.865 +1.082 +0.865 +0.865 +1.082 +0.865 +0.865 +1.082 +0.865 +0.865 +1.082 +0.865 +0.865 +1.082 +0.865 +0.865
# magnetic-moments Ti -0.000 -0.001 -0.001 -0.000 -0.001 -0.001 -0.000 -0.001 -0.001 -0.000 -0.001 -0.001 -0.000 -0.001 -0.001 -0.000 -0.001 -0.001 -0.000 -0.001 -0.001 -0.000 -0.001 -0.001 -0.000 -0.001 -0.001 -0.000 -0.001 -0.001 -0.000 -0.001 -0.001 -0.000 -0.001 -0.001 -0.000 -0.001 -0.001 -0.000 -0.001 -0.001 -0.000 -0.001 -0.001 -0.000 -0.001 -0.001

	Linear fluid (dielectric constant: 78.4, screening length: 5.74355 Bohr) occupying 0.695879 of unit cell:	Completed after 4 iterations at t[s]:  14315.60

-------- Electronic minimization -----------
	Linear fluid (dielectric constant: 78.4, screening length: 5.74355 Bohr) occupying 0.695879 of unit cell:	Completed after 0 iterations at t[s]:  14348.47
	FillingsUpdate:  mu: -0.142132219  nElectrons: 704.500000  magneticMoment: [ Abs: 0.05317  Tot: -0.04975 ]
ElecMinimize: Iter:   0  F: -2983.236121553215071  |grad|_K:  2.314e-07  alpha:  1.000e+00
	Linear fluid (dielectric constant: 78.4, screening length: 5.74355 Bohr) occupying 0.695872 of unit cell:	Completed after 6 iterations at t[s]:  14465.61
	Linear fluid (dielectric constant: 78.4, screening length: 5.74355 Bohr) occupying 0.695876 of unit cell:	Completed after 3 iterations at t[s]:  14512.85
	FillingsUpdate:  mu: -0.142284254  nElectrons: 704.500000  magneticMoment: [ Abs: 0.05335  Tot: -0.04988 ]
	SubspaceRotationAdjust: set factor to 0.0788
ElecMinimize: Iter:   1  F: -2983.236133844572578  |grad|_K:  1.297e-07  alpha:  5.069e-01  linmin:  2.120e-04  t[s]:  14575.05
	Linear fluid (dielectric constant: 78.4, screening length: 5.74355 Bohr) occupying 0.695873 of unit cell:	Completed after 1 iterations at t[s]:  14623.74
	Linear fluid (dielectric constant: 78.4, screening length: 5.74355 Bohr) occupying 0.695873 of unit cell:	Completed after 0 iterations at t[s]:  14670.11
	FillingsUpdate:  mu: -0.142302101  nElectrons: 704.500000  magneticMoment: [ Abs: 0.05356  Tot: -0.05003 ]
	SubspaceRotationAdjust: set factor to 0.102
ElecMinimize: Iter:   2  F: -2983.236137271076586  |grad|_K:  6.139e-08  alpha:  4.547e-01  linmin:  7.059e-04  t[s]:  14731.45
	Linear fluid (dielectric constant: 78.4, screening length: 5.74355 Bohr) occupying 0.695871 of unit cell:	Completed after 2 iterations at t[s]:  14780.19
	Linear fluid (dielectric constant: 78.4, screening length: 5.74355 Bohr) occupying 0.695868 of unit cell:	Completed after 0 iterations at t[s]:  14826.27
	FillingsUpdate:  mu: -0.142319947  nElectrons: 704.500000  magneticMoment: [ Abs: 0.05397  Tot: -0.05036 ]
	SubspaceRotationAdjust: set factor to 0.122
ElecMinimize: Iter:   3  F: -2983.236138689180279  |grad|_K:  4.642e-08  alpha:  8.107e-01  linmin: -8.882e-04  t[s]:  14887.23
	Linear fluid (dielectric constant: 78.4, screening length: 5.74355 Bohr) occupying 0.695861 of unit cell:	Completed after 3 iterations at t[s]:  14936.54
	Linear fluid (dielectric constant: 78.4, screening length: 5.74355 Bohr) occupying 0.695861 of unit cell:	Completed after 0 iterations at t[s]:  14983.37
	FillingsUpdate:  mu: -0.142391545  nElectrons: 704.500000  magneticMoment: [ Abs: 0.05458  Tot: -0.05088 ]
	SubspaceRotationAdjust: set factor to 0.143
ElecMinimize: Iter:   4  F: -2983.236139543594618  |grad|_K:  5.063e-08  alpha:  7.957e-01  linmin: -3.566e-04  t[s]:  15044.79
	Linear fluid (dielectric constant: 78.4, screening length: 5.74355 Bohr) occupying 0.695851 of unit cell:	Completed after 2 iterations at t[s]:  15093.85
	Linear fluid (dielectric constant: 78.4, screening length: 5.74355 Bohr) occupying 0.695853 of unit cell:	Completed after 0 iterations at t[s]:  15139.52
	FillingsUpdate:  mu: -0.142429139  nElectrons: 704.500000  magneticMoment: [ Abs: 0.05552  Tot: -0.05171 ]
	SubspaceRotationAdjust: set factor to 0.181
ElecMinimize: Iter:   5  F: -2983.236140383211023  |grad|_K:  4.966e-08  alpha:  6.395e-01  linmin:  1.437e-05  t[s]:  15200.78
	Linear fluid (dielectric constant: 78.4, screening length: 5.74355 Bohr) occupying 0.695845 of unit cell:	Completed after 2 iterations at t[s]:  15249.28
	Linear fluid (dielectric constant: 78.4, screening length: 5.74355 Bohr) occupying 0.695845 of unit cell:	Completed after 0 iterations at t[s]:  15295.83
	FillingsUpdate:  mu: -0.142428038  nElectrons: 704.500000  magneticMoment: [ Abs: 0.05676  Tot: -0.05284 ]
	SubspaceRotationAdjust: set factor to 0.219
ElecMinimize: Iter:   6  F: -2983.236141029746705  |grad|_K:  4.205e-08  alpha:  5.954e-01  linmin: -3.146e-05  t[s]:  15357.53
	Linear fluid (dielectric constant: 78.4, screening length: 5.74355 Bohr) occupying 0.695840 of unit cell:	Completed after 0 iterations at t[s]:  15406.34
	Linear fluid (dielectric constant: 78.4, screening length: 5.74355 Bohr) occupying 0.695839 of unit cell:	Completed after 0 iterations at t[s]:  15451.90
	FillingsUpdate:  mu: -0.142426955  nElectrons: 704.500000  magneticMoment: [ Abs: 0.05858  Tot: -0.05454 ]
	SubspaceRotationAdjust: set factor to 0.249
ElecMinimize: Iter:   7  F: -2983.236141670367033  |grad|_K:  3.961e-08  alpha:  7.782e-01  linmin:  6.815e-08  t[s]:  15513.41
	Linear fluid (dielectric constant: 78.4, screening length: 5.74355 Bohr) occupying 0.695836 of unit cell:	Completed after 2 iterations at t[s]:  15562.45
	Linear fluid (dielectric constant: 78.4, screening length: 5.74355 Bohr) occupying 0.695838 of unit cell:	Completed after 1 iterations at t[s]:  15609.46
	FillingsUpdate:  mu: -0.142369785  nElectrons: 704.500000  magneticMoment: [ Abs: 0.05969  Tot: -0.05558 ]
	SubspaceRotationAdjust: set factor to 0.222
ElecMinimize: Iter:   8  F: -2983.236141847274666  |grad|_K:  3.880e-08  alpha:  3.478e-01  linmin:  1.519e-05  t[s]:  15670.97
	Linear fluid (dielectric constant: 78.4, screening length: 5.74355 Bohr) occupying 0.695836 of unit cell:	Completed after 3 iterations at t[s]:  15720.07
	Linear fluid (dielectric constant: 78.4, screening length: 5.74355 Bohr) occupying 0.695837 of unit cell:	Completed after 0 iterations at t[s]:  15766.63
	FillingsUpdate:  mu: -0.142380830  nElectrons: 704.500000  magneticMoment: [ Abs: 0.06071  Tot: -0.05654 ]
	SubspaceRotationAdjust: set factor to 0.203
ElecMinimize: Iter:   9  F: -2983.236141992132616  |grad|_K:  2.629e-08  alpha:  2.369e-01  linmin:  7.736e-06  t[s]:  15827.74
	Linear fluid (dielectric constant: 78.4, screening length: 5.74355 Bohr) occupying 0.695836 of unit cell:	Completed after 0 iterations at t[s]:  15876.17
	Linear fluid (dielectric constant: 78.4, screening length: 5.74355 Bohr) occupying 0.695836 of unit cell:	Completed after 0 iterations at t[s]:  15921.63
	FillingsUpdate:  mu: -0.142381842  nElectrons: 704.500000  magneticMoment: [ Abs: 0.06208  Tot: -0.05784 ]
	SubspaceRotationAdjust: set factor to 0.265
ElecMinimize: Iter:  10  F: -2983.236142123287209  |grad|_K:  1.747e-08  alpha:  4.393e-01  linmin:  6.570e-07  t[s]:  15982.89
	Linear fluid (dielectric constant: 78.4, screening length: 5.74355 Bohr) occupying 0.695837 of unit cell:	Completed after 0 iterations at t[s]:  16031.24
	Linear fluid (dielectric constant: 78.4, screening length: 5.74355 Bohr) occupying 0.695837 of unit cell:	Completed after 0 iterations at t[s]:  16076.94
	FillingsUpdate:  mu: -0.142382572  nElectrons: 704.500000  magneticMoment: [ Abs: 0.06374  Tot: -0.05940 ]
	SubspaceRotationAdjust: set factor to 0.348
ElecMinimize: Iter:  11  F: -2983.236142214595020  |grad|_K:  1.639e-08  alpha:  6.692e-01  linmin:  3.599e-07  t[s]:  16137.88
	Linear fluid (dielectric constant: 78.4, screening length: 5.74355 Bohr) occupying 0.695839 of unit cell:	Completed after 0 iterations at t[s]:  16186.14
	Linear fluid (dielectric constant: 78.4, screening length: 5.74355 Bohr) occupying 0.695837 of unit cell:	Completed after 0 iterations at t[s]:  16232.15
ElecMinimize: 	Step increased F by 2.594788e-08, reducing alpha to 1.509177e-02.
	Linear fluid (dielectric constant: 78.4, screening length: 5.74355 Bohr) occupying 0.695837 of unit cell:	Completed after 1 iterations at t[s]:  16332.25
ElecMinimize: 	Step increased F by 4.964477e-08, reducing alpha to 1.509177e-03.
	Linear fluid (dielectric constant: 78.4, screening length: 5.74355 Bohr) occupying 0.695837 of unit cell:	Completed after 0 iterations at t[s]:  16431.98
ElecMinimize: 	Step increased F by 4.953608e-08, reducing alpha to 1.509177e-04.
ElecMinimize: 	Step failed to reduce F after 3 attempts. Quitting step.
ElecMinimize: 	Undoing step.
	Linear fluid (dielectric constant: 78.4, screening length: 5.74355 Bohr) occupying 0.695837 of unit cell:	Completed after 0 iterations at t[s]:  16531.00
ElecMinimize: 	Step failed: resetting search direction.
	FillingsUpdate:  mu: -0.142411124  nElectrons: 704.500000  magneticMoment: [ Abs: 0.06375  Tot: -0.05940 ]
	SubspaceRotationAdjust: set factor to 0.336
ElecMinimize: Iter:  12  F: -2983.236142165088950  |grad|_K:  2.020e-08  alpha:  1.509e-04
	Linear fluid (dielectric constant: 78.4, screening length: 5.74355 Bohr) occupying 0.695841 of unit cell:	Completed after 2 iterations at t[s]:  16640.28
	Linear fluid (dielectric constant: 78.4, screening length: 5.74355 Bohr) occupying 0.695839 of unit cell:	Completed after 0 iterations at t[s]:  16686.72
	FillingsUpdate:  mu: -0.142398338  nElectrons: 704.500000  magneticMoment: [ Abs: 0.06429  Tot: -0.05991 ]
	SubspaceRotationAdjust: set factor to 0.257
ElecMinimize: Iter:  13  F: -2983.236142223042862  |grad|_K:  2.537e-08  alpha:  2.843e-01  linmin:  1.082e-04  t[s]:  16748.22
	Linear fluid (dielectric constant: 78.4, screening length: 5.74355 Bohr) occupying 0.695842 of unit cell:	Completed after 1 iterations at t[s]:  16796.45
	Linear fluid (dielectric constant: 78.4, screening length: 5.74355 Bohr) occupying 0.695841 of unit cell:	Completed after 0 iterations at t[s]:  16842.35
	FillingsUpdate:  mu: -0.142397641  nElectrons: 704.500000  magneticMoment: [ Abs: 0.06503  Tot: -0.06061 ]
	SubspaceRotationAdjust: set factor to 0.414
ElecMinimize: Iter:  14  F: -2983.236142232366092  |grad|_K:  1.688e-08  alpha:  1.537e-01  linmin: -1.917e-05  t[s]:  16903.56
	Linear fluid (dielectric constant: 78.4, screening length: 5.74355 Bohr) occupying 0.695842 of unit cell:	Completed after 0 iterations at t[s]:  16952.43
ElecMinimize: 	Predicted alpha/alphaT>3.000000, increasing alphaT to 4.611828e-01.
	Linear fluid (dielectric constant: 78.4, screening length: 5.74355 Bohr) occupying 0.695844 of unit cell:	Completed after 2 iterations at t[s]:  16997.75
	Linear fluid (dielectric constant: 78.4, screening length: 5.74355 Bohr) occupying 0.695842 of unit cell:	Completed after 0 iterations at t[s]:  17043.96
	FillingsUpdate:  mu: -0.142385934  nElectrons: 704.500000  magneticMoment: [ Abs: 0.06566  Tot: -0.06120 ]
	SubspaceRotationAdjust: set factor to 0.265
ElecMinimize: Iter:  15  F: -2983.236142265312083  |grad|_K:  2.924e-08  alpha:  1.732e-01  linmin:  9.640e-05  t[s]:  17105.53
	Linear fluid (dielectric constant: 78.4, screening length: 5.74355 Bohr) occupying 0.695846 of unit cell:	Completed after 0 iterations at t[s]:  17153.94
	Linear fluid (dielectric constant: 78.4, screening length: 5.74355 Bohr) occupying 0.695843 of unit cell:	Completed after 0 iterations at t[s]:  17199.46
	FillingsUpdate:  mu: -0.142385867  nElectrons: 704.500000  magneticMoment: [ Abs: 0.06617  Tot: -0.06168 ]
	SubspaceRotationAdjust: set factor to 0.189
ElecMinimize: Iter:  16  F: -2983.236142268219282  |grad|_K:  2.465e-08  alpha:  3.900e-02  linmin: -4.171e-08  t[s]:  17260.54
	Linear fluid (dielectric constant: 78.4, screening length: 5.74355 Bohr) occupying 0.695843 of unit cell:	Completed after 0 iterations at t[s]:  17309.13
	Linear fluid (dielectric constant: 78.4, screening length: 5.74355 Bohr) occupying 0.695843 of unit cell:	Completed after 0 iterations at t[s]:  17355.21
	FillingsUpdate:  mu: -0.142384724  nElectrons: 704.500000  magneticMoment: [ Abs: 0.06658  Tot: -0.06207 ]
	SubspaceRotationAdjust: set factor to 0.152
ElecMinimize: Iter:  17  F: -2983.236142278455191  |grad|_K:  2.069e-08  alpha:  3.852e-02  linmin: -8.040e-05  t[s]:  17416.57
	Linear fluid (dielectric constant: 78.4, screening length: 5.74355 Bohr) occupying 0.695844 of unit cell:	Completed after 0 iterations at t[s]:  17465.10
ElecMinimize: 	Predicted alpha/alphaT>3.000000, increasing alphaT to 1.155598e-01.
	Linear fluid (dielectric constant: 78.4, screening length: 5.74355 Bohr) occupying 0.695844 of unit cell:	Completed after 0 iterations at t[s]:  17509.62
ElecMinimize: 	Predicted alpha/alphaT>3.000000, increasing alphaT to 3.466793e-01.
	Linear fluid (dielectric constant: 78.4, screening length: 5.74355 Bohr) occupying 0.695847 of unit cell:	Completed after 2 iterations at t[s]:  17554.89
	Linear fluid (dielectric constant: 78.4, screening length: 5.74355 Bohr) occupying 0.695844 of unit cell:	Completed after 2 iterations at t[s]:  17601.20
ElecMinimize: 	Step increased F by 7.380095e-09, reducing alpha to 1.006708e-02.
	Linear fluid (dielectric constant: 78.4, screening length: 5.74355 Bohr) occupying 0.695843 of unit cell:	Completed after 0 iterations at t[s]:  17701.59
	FillingsUpdate:  mu: -0.142397903  nElectrons: 704.500000  magneticMoment: [ Abs: 0.06667  Tot: -0.06215 ]
	SubspaceRotationAdjust: set factor to 0.0714
ElecMinimize: Iter:  18  F: -2983.236142284874859  |grad|_K:  8.881e-09  alpha:  1.007e-02  linmin:  4.693e-05  t[s]:  17762.87
	Linear fluid (dielectric constant: 78.4, screening length: 5.74355 Bohr) occupying 0.695843 of unit cell:	Completed after 0 iterations at t[s]:  17811.14
ElecMinimize: 	Wrong curvature in test step, increasing alphaT to 3.020123e-02.
	Linear fluid (dielectric constant: 78.4, screening length: 5.74355 Bohr) occupying 0.695843 of unit cell:	Completed after 0 iterations at t[s]:  17843.05
	FillingsUpdate:  mu: -0.142397904  nElectrons: 704.500000  magneticMoment: [ Abs: 0.06670  Tot: -0.06217 ]
	SubspaceRotationAdjust: set factor to 0.1
ElecMinimize: Iter:  19  F: -2983.236142285577444  |grad|_K:  7.445e-09  alpha: -1.621e-02  linmin: -9.973e-05  t[s]:  17903.80
ElecMinimize: Converged (|Delta F|<1.000000e-08 for 2 iters).
Setting wave functions to eigenvectors of Hamiltonian
IonicMinimize: 	Wolfe criterion not satisfied: alpha: 1  (E-E0)/|gdotd0|: -0.939887  gdotd/gdotd0: 0.928015 (taking cubic step)
	Linear fluid (dielectric constant: 78.4, screening length: 5.74355 Bohr) occupying 0.695849 of unit cell:	Completed after 7 iterations at t[s]:  17983.95

-------- Electronic minimization -----------
	Linear fluid (dielectric constant: 78.4, screening length: 5.74355 Bohr) occupying 0.695849 of unit cell:	Completed after 0 iterations at t[s]:  18017.11
	FillingsUpdate:  mu: -0.141837987  nElectrons: 704.500000  magneticMoment: [ Abs: 0.07222  Tot: -0.06752 ]
ElecMinimize: Iter:   0  F: -2983.236223368875471  |grad|_K:  4.281e-07  alpha:  1.000e+00
	Linear fluid (dielectric constant: 78.4, screening length: 5.74355 Bohr) occupying 0.695825 of unit cell:	Completed after 8 iterations at t[s]:  18134.78
	Linear fluid (dielectric constant: 78.4, screening length: 5.74355 Bohr) occupying 0.695837 of unit cell:	Completed after 6 iterations at t[s]:  18182.34
	FillingsUpdate:  mu: -0.142194678  nElectrons: 704.500000  magneticMoment: [ Abs: 0.07257  Tot: -0.06780 ]
	SubspaceRotationAdjust: set factor to 0.11
ElecMinimize: Iter:   1  F: -2983.236265076860946  |grad|_K:  2.397e-07  alpha:  5.079e-01  linmin:  4.467e-05  t[s]:  18245.18
	Linear fluid (dielectric constant: 78.4, screening length: 5.74355 Bohr) occupying 0.695828 of unit cell:	Completed after 2 iterations at t[s]:  18293.57
	Linear fluid (dielectric constant: 78.4, screening length: 5.74355 Bohr) occupying 0.695830 of unit cell:	Completed after 2 iterations at t[s]:  18339.72
	FillingsUpdate:  mu: -0.142281232  nElectrons: 704.500000  magneticMoment: [ Abs: 0.07295  Tot: -0.06810 ]
	SubspaceRotationAdjust: set factor to 0.144
ElecMinimize: Iter:   2  F: -2983.236275573204694  |grad|_K:  1.065e-07  alpha:  4.097e-01  linmin: -1.679e-04  t[s]:  18401.27
	Linear fluid (dielectric constant: 78.4, screening length: 5.74355 Bohr) occupying 0.695825 of unit cell:	Completed after 2 iterations at t[s]:  18449.64
	Linear fluid (dielectric constant: 78.4, screening length: 5.74355 Bohr) occupying 0.695819 of unit cell:	Completed after 2 iterations at t[s]:  18495.27
	FillingsUpdate:  mu: -0.142324866  nElectrons: 704.500000  magneticMoment: [ Abs: 0.07377  Tot: -0.06879 ]
	SubspaceRotationAdjust: set factor to 0.17
ElecMinimize: Iter:   3  F: -2983.236280220688514  |grad|_K:  9.019e-08  alpha:  9.068e-01  linmin: -5.971e-05  t[s]:  18556.73
	Linear fluid (dielectric constant: 78.4, screening length: 5.74355 Bohr) occupying 0.695804 of unit cell:	Completed after 3 iterations at t[s]:  18605.27
	Linear fluid (dielectric constant: 78.4, screening length: 5.74355 Bohr) occupying 0.695799 of unit cell:	Completed after 0 iterations at t[s]:  18651.46
	FillingsUpdate:  mu: -0.142380305  nElectrons: 704.500000  magneticMoment: [ Abs: 0.07566  Tot: -0.07045 ]
	SubspaceRotationAdjust: set factor to 0.202
ElecMinimize: Iter:   4  F: -2983.236284638978304  |grad|_K:  1.097e-07  alpha:  1.194e+00  linmin: -1.164e-04  t[s]:  18712.05
	Linear fluid (dielectric constant: 78.4, screening length: 5.74355 Bohr) occupying 0.695761 of unit cell:	Completed after 4 iterations at t[s]:  18760.80
	Linear fluid (dielectric constant: 78.4, screening length: 5.74355 Bohr) occupying 0.695782 of unit cell:	Completed after 2 iterations at t[s]:  18807.55
	FillingsUpdate:  mu: -0.142569930  nElectrons: 704.500000  magneticMoment: [ Abs: 0.07750  Tot: -0.07212 ]
	SubspaceRotationAdjust: set factor to 0.241
ElecMinimize: Iter:   5  F: -2983.236287501790684  |grad|_K:  9.014e-08  alpha:  5.387e-01  linmin:  2.023e-05  t[s]:  18869.09
	Linear fluid (dielectric constant: 78.4, screening length: 5.74355 Bohr) occupying 0.695776 of unit cell:	Completed after 3 iterations at t[s]:  18917.79
	Linear fluid (dielectric constant: 78.4, screening length: 5.74355 Bohr) occupying 0.695776 of unit cell:	Completed after 0 iterations at t[s]:  18964.37
	FillingsUpdate:  mu: -0.142497560  nElectrons: 704.500000  magneticMoment: [ Abs: 0.07945  Tot: -0.07393 ]
	SubspaceRotationAdjust: set factor to 0.234
ElecMinimize: Iter:   6  F: -2983.236289455704537  |grad|_K:  7.277e-08  alpha:  5.391e-01  linmin: -4.675e-05  t[s]:  19025.18
	Linear fluid (dielectric constant: 78.4, screening length: 5.74355 Bohr) occupying 0.695775 of unit cell:	Completed after 2 iterations at t[s]:  19073.83
	Linear fluid (dielectric constant: 78.4, screening length: 5.74355 Bohr) occupying 0.695775 of unit cell:	Completed after 0 iterations at t[s]:  19119.85
	FillingsUpdate:  mu: -0.142428823  nElectrons: 704.500000  magneticMoment: [ Abs: 0.08110  Tot: -0.07549 ]
	SubspaceRotationAdjust: set factor to 0.223
ElecMinimize: Iter:   7  F: -2983.236290465923048  |grad|_K:  5.507e-08  alpha:  4.162e-01  linmin:  4.004e-05  t[s]:  19180.60
	Linear fluid (dielectric constant: 78.4, screening length: 5.74355 Bohr) occupying 0.695775 of unit cell:	Completed after 2 iterations at t[s]:  19229.14
	Linear fluid (dielectric constant: 78.4, screening length: 5.74355 Bohr) occupying 0.695775 of unit cell:	Completed after 0 iterations at t[s]:  19274.89
	FillingsUpdate:  mu: -0.142421469  nElectrons: 704.500000  magneticMoment: [ Abs: 0.08265  Tot: -0.07696 ]
	SubspaceRotationAdjust: set factor to 0.239
ElecMinimize: Iter:   8  F: -2983.236290982270475  |grad|_K:  3.099e-08  alpha:  3.971e-01  linmin: -1.080e-04  t[s]:  19335.45
	Linear fluid (dielectric constant: 78.4, screening length: 5.74355 Bohr) occupying 0.695776 of unit cell:	Completed after 0 iterations at t[s]:  19383.96
	Linear fluid (dielectric constant: 78.4, screening length: 5.74355 Bohr) occupying 0.695777 of unit cell:	Completed after 0 iterations at t[s]:  19429.55
	FillingsUpdate:  mu: -0.142422498  nElectrons: 704.500000  magneticMoment: [ Abs: 0.08444  Tot: -0.07866 ]
	SubspaceRotationAdjust: set factor to 0.26
ElecMinimize: Iter:   9  F: -2983.236291283072660  |grad|_K:  2.491e-08  alpha:  6.379e-01  linmin: -6.509e-07  t[s]:  19490.43
	Linear fluid (dielectric constant: 78.4, screening length: 5.74355 Bohr) occupying 0.695780 of unit cell:	Completed after 2 iterations at t[s]:  19538.86
	Linear fluid (dielectric constant: 78.4, screening length: 5.74355 Bohr) occupying 0.695779 of unit cell:	Completed after 0 iterations at t[s]:  19584.87
	FillingsUpdate:  mu: -0.142404070  nElectrons: 704.500000  magneticMoment: [ Abs: 0.08570  Tot: -0.07985 ]
	SubspaceRotationAdjust: set factor to 0.271
ElecMinimize: Iter:  10  F: -2983.236291352840453  |grad|_K:  2.164e-08  alpha:  3.537e-01  linmin: -2.658e-05  t[s]:  19645.69
	Linear fluid (dielectric constant: 78.4, screening length: 5.74355 Bohr) occupying 0.695781 of unit cell:	Completed after 0 iterations at t[s]:  19694.04
	Linear fluid (dielectric constant: 78.4, screening length: 5.74355 Bohr) occupying 0.695781 of unit cell:	Completed after 0 iterations at t[s]:  19739.77
	FillingsUpdate:  mu: -0.142404271  nElectrons: 704.500000  magneticMoment: [ Abs: 0.08733  Tot: -0.08138 ]
	SubspaceRotationAdjust: set factor to 0.366
ElecMinimize: Iter:  11  F: -2983.236291431357131  |grad|_K:  1.990e-08  alpha:  3.541e-01  linmin: -3.323e-05  t[s]:  19800.26
	Linear fluid (dielectric constant: 78.4, screening length: 5.74355 Bohr) occupying 0.695784 of unit cell:	Completed after 2 iterations at t[s]:  19848.66
	Linear fluid (dielectric constant: 78.4, screening length: 5.74355 Bohr) occupying 0.695782 of unit cell:	Completed after 1 iterations at t[s]:  19894.76
ElecMinimize: 	Step increased F by 4.207595e-08, reducing alpha to 7.628270e-03.
	Linear fluid (dielectric constant: 78.4, screening length: 5.74355 Bohr) occupying 0.695781 of unit cell:	Completed after 0 iterations at t[s]:  19993.98
ElecMinimize: 	Step increased F by 2.090565e-08, reducing alpha to 7.628270e-04.
	Linear fluid (dielectric constant: 78.4, screening length: 5.74355 Bohr) occupying 0.695781 of unit cell:	Completed after 0 iterations at t[s]:  20093.03
ElecMinimize: 	Step increased F by 1.895023e-08, reducing alpha to 7.628270e-05.
ElecMinimize: 	Step failed to reduce F after 3 attempts. Quitting step.
ElecMinimize: 	Undoing step.
	Linear fluid (dielectric constant: 78.4, screening length: 5.74355 Bohr) occupying 0.692627 of unit cell:	Completed after 9 iterations at t[s]:  20192.82
ElecMinimize: 	Step failed: resetting search direction.
	FillingsUpdate:  mu: -0.149279269  nElectrons: 704.500000  magneticMoment: [ Abs: 0.34861  Tot: -0.08138 ]
ElecMinimize: 	Preconditioner indefiniteness detected (grad_K will become NAN): Converging empty states (this may take a while): 