
*************** JDFTx 1.5.0  ***************

Start date and time: Thu Feb 11 06:20:31 2021
Executable jdftx_gpu with command-line: -i Charged.in -o Charged.out
Running on hosts (process indices):  amax (0-6)
Divided in process groups (process indices):  0 (0)  1 (1)  2 (2)  3 (3)  4 (4)  5 (5)  6 (6)
gpuInit: Found compatible cuda device 0 'Tesla K80'
gpuInit: Found compatible cuda device 1 'Tesla K80'
gpuInit: Found compatible cuda device 2 'Tesla K80'
gpuInit: Found compatible cuda device 3 'Tesla K80'
gpuInit: Found compatible cuda device 4 'Tesla K80'
gpuInit: Found compatible cuda device 5 'Tesla K80'
gpuInit: Found compatible cuda device 6 'Tesla K80'
gpuInit: Selected device 0
Resource initialization completed at t[s]:      4.07
Run totals: 7 processes, 24 threads, 7 GPUs


Input parsed successfully to the following command list (including defaults):

basis kpoint-dependent
cache-projectors no
coords-type Lattice
core-overlap-check none
coulomb-interaction Slab 001
coulomb-truncation-embed 0.5 0.5 0.5
davidson-band-ratio 1.1
dump End State
dump-name NbTe2.$VAR
elec-cutoff 20
elec-eigen-algo Davidson
elec-ex-corr gga-PBE
elec-initial-charge 0.000000
elec-initial-magnetization 20.000000 no
elec-smearing Gauss 0.0073499
electronic-minimize  \
	dirUpdateScheme      FletcherReeves \
	linminMethod         DirUpdateRecommended \
	nIterations          200 \
	history              15 \
	knormThreshold       0 \
	energyDiffThreshold  1e-08 \
	nEnergyDiff          2 \
	alphaTstart          1 \
	alphaTmin            1e-10 \
	updateTestStepSize   yes \
	alphaTreduceFactor   0.1 \
	alphaTincreaseFactor 3 \
	nAlphaAdjustMax      3 \
	wolfeEnergy          0.0001 \
	wolfeGradient        0.9 \
	fdTest               no
exchange-regularization WignerSeitzTruncated
fluid LinearPCM 298.000000 1.013250
fluid-anion F- 1 MeanFieldLJ \
	epsBulk 1 \
	pMol 0 \
	epsInf 1 \
	Pvap 0 \
	sigmaBulk 0 \
	Rvdw 2.24877 \
	Res 0 \
	tauNuc 343133
fluid-cation Na+ 1 MeanFieldLJ \
	epsBulk 1 \
	pMol 0 \
	epsInf 1 \
	Pvap 0 \
	sigmaBulk 0 \
	Rvdw 2.19208 \
	Res 0 \
	tauNuc 343133
fluid-ex-corr lda-TF lda-PZ
fluid-gummel-loop 10 1.000000e-05
fluid-minimize  \
	dirUpdateScheme      PolakRibiere \
	linminMethod         DirUpdateRecommended \
	nIterations          400 \
	history              15 \
	knormThreshold       1e-11 \
	energyDiffThreshold  0 \
	nEnergyDiff          2 \
	alphaTstart          1 \
	alphaTmin            1e-10 \
	updateTestStepSize   yes \
	alphaTreduceFactor   0.1 \
	alphaTincreaseFactor 3 \
	nAlphaAdjustMax      6 \
	wolfeEnergy          0.0001 \
	wolfeGradient        0.9 \
	fdTest               no
fluid-solvent H2O 55.338 ScalarEOS \
	epsBulk 78.4 \
	pMol 0.92466 \
	epsInf 1.77 \
	Pvap 1.06736e-10 \
	sigmaBulk 4.62e-05 \
	Rvdw 2.61727 \
	Res 1.42 \
	tauNuc 343133 \
	poleEl 15 7 1
forces-output-coords Positions
initial-state NbTe2.$VAR
ion Nb   0.083329995000000   0.083329999000000   0.500000000000000 1
ion Nb   0.333329995000000   0.083329999000000   0.500000000000000 1
ion Nb   0.583329978000000   0.083329999000000   0.500000000000000 1
ion Nb   0.833329961000000   0.083329999000000   0.500000000000000 1
ion Nb   0.083329995000000   0.333330018000000   0.500000000000000 1
ion Nb   0.333329977000000   0.333330018000000   0.500000000000000 1
ion Nb   0.583329960000000   0.333330018000000   0.500000000000000 1
ion Nb   0.833329943000000   0.333330018000000   0.500000000000000 1
ion Nb   0.083329992000000   0.583330007000000   0.500000000000000 1
ion Nb   0.333329974000000   0.583330007000000   0.500000000000000 1
ion Nb   0.583329957000000   0.583330007000000   0.500000000000000 1
ion Nb   0.833329940000000   0.583330007000000   0.500000000000000 1
ion Nb   0.083329988000000   0.833329996000000   0.500000000000000 1
ion Nb   0.333329971000000   0.833329996000000   0.500000000000000 1
ion Nb   0.583329954000000   0.833329996000000   0.500000000000000 1
ion Nb   0.833329937000000   0.833329996000000   0.500000000000000 1
ion Se   0.166669997000000   0.166670000000000   0.591690024000000 1
ion Se   0.166669997000000   0.166670000000000   0.408310002000000 1
ion Se   0.416669979000000   0.166670000000000   0.591690024000000 1
ion Se   0.416669979000000   0.166670000000000   0.408310002000000 1
ion Se   0.666669997000000   0.166670000000000   0.591690024000000 1
ion Se   0.666669997000000   0.166670000000000   0.408310002000000 1
ion Se   0.916669979000000   0.166670000000000   0.591690024000000 1
ion Se   0.916669979000000   0.166670000000000   0.408310002000000 1
ion Se   0.166669974000000   0.416670029000000   0.591690024000000 1
ion Se   0.166669974000000   0.416670029000000   0.408310002000000 1
ion Se   0.416669991000000   0.416670029000000   0.591690024000000 1
ion Se   0.416669991000000   0.416670029000000   0.408310002000000 1
ion Se   0.666669974000000   0.416670029000000   0.591690024000000 1
ion Se   0.666669974000000   0.416670029000000   0.408310002000000 1
ion Se   0.916669956000000   0.416670029000000   0.591690024000000 1
ion Se   0.916669956000000   0.416670029000000   0.408310002000000 1
ion Se   0.166669985000000   0.666670057000000   0.591690024000000 1
ion Se   0.166669985000000   0.666670057000000   0.408310002000000 1
ion Se   0.416669968000000   0.666670057000000   0.591690024000000 1
ion Se   0.416669968000000   0.666670057000000   0.408310002000000 1
ion Se   0.666670020000000   0.666670057000000   0.591690024000000 1
ion Se   0.666670020000000   0.666670057000000   0.408310002000000 1
ion Se   0.916670002000000   0.666670057000000   0.591690024000000 1
ion Se   0.916670002000000   0.666670057000000   0.408310002000000 1
ion Se   0.166669982000000   0.916670046000000   0.591690024000000 1
ion Se   0.166669982000000   0.916670046000000   0.408310002000000 1
ion Se   0.416669965000000   0.916670046000000   0.591690024000000 1
ion Se   0.416669965000000   0.916670046000000   0.408310002000000 1
ion Se   0.666669947000000   0.916670046000000   0.591690024000000 1
ion Se   0.666669947000000   0.916670046000000   0.408310002000000 1
ion Se   0.916669930000000   0.916670046000000   0.591690024000000 1
ion Se   0.916669930000000   0.916670046000000   0.408310002000000 1
ion-species GBRV/$ID_pbe.uspp
ion-width Ecut
ionic-minimize  \
	dirUpdateScheme      L-BFGS \
	linminMethod         DirUpdateRecommended \
	nIterations          500 \
	history              15 \
	knormThreshold       0.0001 \
	energyDiffThreshold  1e-06 \
	nEnergyDiff          2 \
	alphaTstart          1 \
	alphaTmin            1e-10 \
	updateTestStepSize   yes \
	alphaTreduceFactor   0.1 \
	alphaTincreaseFactor 3 \
	nAlphaAdjustMax      3 \
	wolfeEnergy          0.0001 \
	wolfeGradient        0.9 \
	fdTest               no
kpoint   0.000000000000   0.000000000000   0.000000000000  1.00000000000000
kpoint-folding 4 4 1 
latt-move-scale 1 1 1
latt-scale 1.88973 1.88973 1.88973 
lattice Triclinic 13.7902 13.7902 18.3686 90 90 60
lattice-minimize  \
	dirUpdateScheme      L-BFGS \
	linminMethod         DirUpdateRecommended \
	nIterations          0 \
	history              15 \
	knormThreshold       0 \
	energyDiffThreshold  1e-06 \
	nEnergyDiff          2 \
	alphaTstart          1 \
	alphaTmin            1e-10 \
	updateTestStepSize   yes \
	alphaTreduceFactor   0.1 \
	alphaTincreaseFactor 3 \
	nAlphaAdjustMax      3 \
	wolfeEnergy          0.0001 \
	wolfeGradient        0.9 \
	fdTest               no
lcao-params -1 1e-06 0.0073499
pcm-variant CANDLE
spintype z-spin
subspace-rotation-factor 1 yes
symmetries automatic
symmetry-threshold 0.0001



---------- Setting up symmetries ----------

Found 24 point-group symmetries of the bravais lattice
Found 64 space-group symmetries with basis
Applied RMS atom displacement 7.44331e-07 bohrs to make symmetries exact.

---------- Initializing the Grid ----------
R = 
[    26.0597    13.0298          0  ]
[          0    22.5684          0  ]
[          0          0    34.7116  ]
unit cell volume = 20414.8
G =
[   0.241107  -0.139203          0  ]
[          0   0.278407          0  ]
[          0          0   0.181011  ]
Minimum fftbox size, Smin = [  108  108  140  ]
Chosen fftbox size, S = [  108  108  140  ]

---------- Exchange Correlation functional ----------
Initalized PBE GGA exchange.
Initalized PBE GGA correlation.

---------- Setting up pseudopotentials ----------
Width of ionic core gaussian charges (only for fluid interactions / plotting) set to 0.397384

Reading pseudopotential file '/home/guoxy/vasp/jdftx-1.5.0/build/pseudopotentials/GBRV/nb_pbe.uspp':
  Title: Nb.  Created by USPP 7.3.6 on 14-9-2013
  Reference state energy: -58.592548.  13 valence electrons in orbitals:
    |400>  occupation: 2  eigenvalue: -2.145853
    |410>  occupation: 6  eigenvalue: -1.268635
    |420>  occupation: 4  eigenvalue: -0.111734
    |500>  occupation: 1  eigenvalue: -0.146332
    |510>  occupation: 0  eigenvalue: -0.040820
  lMax: 2  lLocal: 3  QijEcut: 5
  6 projectors sampled on a log grid with 627 points:
    l: 0  eig: -2.145854  rCut: 1.8
    l: 0  eig: -0.146334  rCut: 1.8
    l: 1  eig: -1.268634  rCut: 2
    l: 1  eig: 0.150000  rCut: 2
    l: 2  eig: -0.040820  rCut: 2.2
    l: 2  eig: 0.150000  rCut: 2.2
  Partial core density with radius 1.2
  Transforming core density to a uniform radial grid of dG=0.02 with 1453 points.
  Transforming local potential to a uniform radial grid of dG=0.02 with 1453 points.
  Transforming nonlocal projectors to a uniform radial grid of dG=0.02 with 432 points.
  Transforming density augmentations to a uniform radial grid of dG=0.02 with 1453 points.
  Transforming atomic orbitals to a uniform radial grid of dG=0.02 with 432 points.
  Core radius for overlap checks: 2.20 bohrs.

Reading pseudopotential file '/home/guoxy/vasp/jdftx-1.5.0/build/pseudopotentials/GBRV/se_pbe.uspp':
  Title: Se.  Created by USPP 7.3.6 on 14-9-2013
  Reference state energy: -21.672887.  6 valence electrons in orbitals:
    |400>  occupation: 2  eigenvalue: -0.635284
    |410>  occupation: 4  eigenvalue: -0.239295
  lMax: 2  lLocal: 3  QijEcut: 5
  6 projectors sampled on a log grid with 625 points:
    l: 0  eig: -0.635278  rCut: 1.5
    l: 0  eig: 0.500000  rCut: 1.5
    l: 1  eig: -0.239295  rCut: 1.5
    l: 1  eig: 0.500000  rCut: 1.5
    l: 2  eig: 0.000000  rCut: 1.8
    l: 2  eig: 1.000000  rCut: 1.8
  Partial core density with radius 1.2
  Transforming core density to a uniform radial grid of dG=0.02 with 1453 points.
  Transforming local potential to a uniform radial grid of dG=0.02 with 1453 points.
  Transforming nonlocal projectors to a uniform radial grid of dG=0.02 with 432 points.
  Transforming density augmentations to a uniform radial grid of dG=0.02 with 1453 points.
  Transforming atomic orbitals to a uniform radial grid of dG=0.02 with 432 points.
  Core radius for overlap checks: 1.80 bohrs.

Initialized 2 species with 48 total atoms.

Folded 1 k-points by 4x4x1 to 16 k-points.

---------- Setting up k-points, bands, fillings ----------
Adding inversion symmetry to k-mesh for non-inversion-symmetric unit cell.
Reduced to 7 k-points under symmetry. 
Computing the number of bands and number of electrons
Calculating initial fillings.
nElectrons: 400.000000   nBands: 336   nStates: 14

----- Setting up reduced wavefunction bases (one per k-point) -----
average nbasis = 87201.562 , ideal nbasis = 87213.421

---------- Setting up coulomb interaction ----------
Fluid mode embedding: using embedded box, but periodic Coulomb kernel.
(Fluid response is responsible for (approximate) separation between periodic images.)
Setting up double-sized grid for truncated Coulomb potentials:
R = 
[    26.0597    13.0298          0  ]
[          0    22.5684          0  ]
[          0          0    69.4232  ]
unit cell volume = 40829.5
G =
[   0.241107  -0.139203          0  ]
[          0   0.278407          0  ]
[          0          0  0.0905055  ]
Chosen fftbox size, S = [  108  108  280  ]
Integer grid location selected as the embedding center:
   Grid: [  54  54  70  ]
   Lattice: [  0.5  0.5  0.5  ]
   Cartesian: [  19.5448  11.2842  17.3558  ]
Constructing Wigner-Seitz cell: 8 faces (6 quadrilaterals, 2 hexagons)
Range-separation parameter for embedded mesh potentials due to point charges: 0.628179 bohrs.

Initializing van der Waals corrections
	NOTE: vdW corrections apply only for interactions with fluid.
	Nb:  C6:  427.91 Eh-a0^6  R0: 3.097 a0
	Se:  C6:  219.24 Eh-a0^6  R0: 3.347 a0

---------- Setting up ewald sum ----------
Optimum gaussian width for ewald sums = 7.206006 bohr.
Real space sum over 605 unit cells with max indices [  5  5  2  ]
Reciprocal space sum over 7425 terms with max indices [  7  7  16  ]

---------- Allocating electronic variables ----------
Initializing wave functions:  linear combination of atomic orbitals
Nb pseudo-atom occupations:   s ( 2 2 )  p ( 6 0 )  d ( 3 )
Se pseudo-atom occupations:   s ( 2 )  p ( 4 )
	FillingsUpdate:  mu: -1.192228611  nElectrons: 400.000000  magneticMoment: [ Abs: 0.90893  Tot: +0.90856 ]
LCAOMinimize: Iter:   0  F: -1169.6874976092724410  |grad|_K:  1.121e-02  alpha:  1.000e+00
	FillingsUpdate:  mu: -0.266954089  nElectrons: 400.000000  magneticMoment: [ Abs: 4.69119  Tot: +4.68991 ]
LCAOMinimize: Iter:   1  F: -1221.4699191016707118  |grad|_K:  3.029e-03  alpha:  2.546e-01  linmin: -4.427e-01  cgtest:  4.963e-01  t[s]:    229.64
LCAOMinimize: Encountered beta<0, resetting CG.
	FillingsUpdate:  mu: -0.160888484  nElectrons: 400.000000  magneticMoment: [ Abs: 4.69685  Tot: +4.69596 ]
LCAOMinimize: Iter:   2  F: -1222.8126870457583664  |grad|_K:  3.652e-04  alpha:  1.501e-01  linmin: -3.977e-01  cgtest:  7.763e-01  t[s]:    301.60
LCAOMinimize: Encountered beta<0, resetting CG.
	FillingsUpdate:  mu: -0.140812978  nElectrons: 400.000000  magneticMoment: [ Abs: 4.44053  Tot: +4.43969 ]
LCAOMinimize: Iter:   3  F: -1222.8319038912811720  |grad|_K:  1.712e-04  alpha:  1.828e-01  linmin:  2.258e-02  cgtest: -6.224e-02  t[s]:    372.75
LCAOMinimize: 	Predicted alpha/alphaT>3.000000, increasing alphaT to 5.485040e-01.
	FillingsUpdate:  mu: -0.149927193  nElectrons: 400.000000  magneticMoment: [ Abs: 3.05264  Tot: +3.05071 ]
LCAOMinimize: Iter:   4  F: -1222.8446648505680514  |grad|_K:  5.749e-05  alpha:  5.694e-01  linmin: -1.454e-03  cgtest:  4.405e-01  t[s]:    466.36
LCAOMinimize: Encountered beta<0, resetting CG.
	FillingsUpdate:  mu: -0.153707083  nElectrons: 400.000000  magneticMoment: [ Abs: 2.80674  Tot: +2.80203 ]
LCAOMinimize: Iter:   5  F: -1222.8452176684365895  |grad|_K:  3.814e-05  alpha:  2.138e-01  linmin:  4.276e-03  cgtest: -1.945e-02  t[s]:    537.68
LCAOMinimize: 	Predicted alpha/alphaT>3.000000, increasing alphaT to 6.414217e-01.
	FillingsUpdate:  mu: -0.151705081  nElectrons: 400.000000  magneticMoment: [ Abs: 1.54828  Tot: +1.23617 ]
LCAOMinimize: Iter:   6  F: -1222.8463543183972888  |grad|_K:  2.155e-05  alpha:  1.000e+00  linmin:  8.014e-03  cgtest: -4.843e-02  t[s]:    630.29
	FillingsUpdate:  mu: -0.152782889  nElectrons: 400.000000  magneticMoment: [ Abs: 0.69358  Tot: +0.16316 ]
LCAOMinimize: Iter:   7  F: -1222.8467956660044820  |grad|_K:  1.251e-05  alpha:  1.218e+00  linmin:  8.537e-03  cgtest:  1.352e-02  t[s]:    701.70
	FillingsUpdate:  mu: -0.151830125  nElectrons: 400.000000  magneticMoment: [ Abs: 0.52788  Tot: +0.08991 ]
LCAOMinimize: Iter:   8  F: -1222.8468332762479349  |grad|_K:  1.172e-05  alpha:  3.032e-01  linmin: -2.908e-03  cgtest:  1.483e-02  t[s]:    772.70
	FillingsUpdate:  mu: -0.152222247  nElectrons: 400.000000  magneticMoment: [ Abs: 0.03430  Tot: -0.01427 ]
LCAOMinimize: Iter:   9  F: -1222.8469100987540514  |grad|_K:  1.780e-06  alpha:  6.935e-01  linmin: -3.285e-02  cgtest: -2.099e-02  t[s]:    843.78
	FillingsUpdate:  mu: -0.152097670  nElectrons: 400.000000  magneticMoment: [ Abs: 0.01516  Tot: -0.01233 ]
LCAOMinimize: Iter:  10  F: -1222.8469118005680230  |grad|_K:  1.827e-06  alpha:  6.644e-01  linmin:  1.582e-04  cgtest: -1.490e-02  t[s]:    915.10
	FillingsUpdate:  mu: -0.152200844  nElectrons: 400.000000  magneticMoment: [ Abs: 0.01177  Tot: -0.01091 ]
LCAOMinimize: Iter:  11  F: -1222.8469123471047624  |grad|_K:  3.983e-07  alpha:  2.060e-01  linmin:  8.827e-05  cgtest:  2.745e-02  t[s]:    986.38
LCAOMinimize: 	Predicted alpha/alphaT>3.000000, increasing alphaT to 6.181321e-01.
	FillingsUpdate:  mu: -0.152205145  nElectrons: 400.000000  magneticMoment: [ Abs: 0.01047  Tot: -0.00853 ]
LCAOMinimize: Iter:  12  F: -1222.8469124480786832  |grad|_K:  1.027e-07  alpha:  8.009e-01  linmin:  2.652e-04  cgtest: -1.132e-03  t[s]:   1079.51
LCAOMinimize: Converged (|Delta F|<1.000000e-06 for 2 iters).
----- createFluidSolver() ----- (Fluid-side solver setup)
   Initializing fluid molecule 'H2O'
     Initializing site 'O'
       Electron density: proportional to exp(-r/0.36935)*erfc((r-0.51523)/0.36823) with norm 6.826
       Charge density: gaussian nuclear width 0.478731 with net site charge 0.826
       Polarizability: cuspless exponential with width 0.32 and norm 3.73
       Hard sphere radius: 2.57003 bohrs
       Positions in reference frame:
         [ +0.000000 +0.000000 +0.000000 ]
     Initializing site 'H'
       Electron density: proportional to exp(-r/0.34641)*erfc((r-0)/0.390882) with norm 0.587
       Charge density: gaussian nuclear width 0.377945 with net site charge -0.413
       Polarizability: cuspless exponential with width 0.39 and norm 3.3
       Positions in reference frame:
         [ +0.000000 -1.441945 +1.122523 ]
         [ +0.000000 +1.441945 +1.122523 ]
     Net charge: 0   dipole magnitude: 0.927204
     Initializing spherical shell mfKernel with radius 2.61727 Bohr
     deltaS corrections:
       site 'O': -7.54299
       site 'H': -6.83917
   Initializing fluid molecule 'Na+'
     Initializing site 'Na'
       Electron density: proportional to exp(-r/0.19682)*erfc((r-0.71491)/0.41314) with norm 8.1383
       Charge density: gaussian nuclear width 0.365347 with net site charge -1
       Hard sphere radius: 1.86327 bohrs
       Positions in reference frame:
         [ +0.000000 +0.000000 +0.000000 ]
     Net charge: -1   dipole magnitude: 0
     Initializing gaussian mfKernel with width: 1.55004 Bohr
     deltaS corrections:
       site 'Na': -22.3555
   Initializing fluid molecule 'F-'
     Initializing site 'F'
       Electron density: proportional to exp(-r/0.38886)*erfc((r-0)/0.438782) with norm 8
       Charge density: gaussian nuclear width 0.374796 with net site charge 1
       Hard sphere radius: 2.39995 bohrs
       Positions in reference frame:
         [ +0.000000 +0.000000 +0.000000 ]
     Net charge: 1   dipole magnitude: 0
     Initializing gaussian mfKernel with width: 1.59012 Bohr
     deltaS corrections:
       site 'F': -9.04335

Correction to mu due to finite nuclear width = -0.00972043
   Cavity determined by nc: 0.00142 and sigma: 0.707107
   Nonlocal vdW cavity from gaussian model electron density with norm = 8 and sigma = 0.993594 bohr
   Charge asymmetry in cavity with sensitivity pCavity = 36.5 e-bohr/Eh
   Electrostatic cavity expanded by eta = 1.46 bohrs
   Weighted density cavitation model constrained by Nbulk: 0.0049383 bohr^-3, Pvap: 3.14029 kPa, Rvdw: 2.61727 bohr and sigmaBulk: 4.62e-05 Eh/bohr^2 at T: 298 K.
   Weighted density dispersion model using vdW pair potentials with single solvent site with sqrtC6eff: 0.77 SI.


---- Citations for features of the code used in this run ----

   Software package:
      R. Sundararaman, K. Letchworth-Weaver, K.A. Schwarz, D. Gunceler, Y. Ozhabes and T.A. Arias, 'JDFTx: software for joint density-functional theory', SoftwareX 6, 278 (2017)

   gga-PBE exchange-correlation functional:
      J.P. Perdew, K. Burke and M. Ernzerhof, Phys. Rev. Lett. 77, 3865 (1996)

   Pseudopotentials:
      KF Garrity, JW Bennett, KM Rabe and D Vanderbilt, Comput. Mater. Sci. 81, 446 (2014)

   Truncated Coulomb potentials:
      R. Sundararaman and T.A. Arias, Phys. Rev. B 87, 165122 (2013)

   Van der Waals correction pair-potentials:
      S. Grimme, J. Comput. Chem. 27, 1787 (2006)

   Charge-asymmetric nonlocally-determined local-electric (CANDLE) solvation model:
      R. Sundararaman and W.A. Goddard III, J. Chem. Phys. 142, 064107 (2015)

   Total energy minimization with Auxiliary Hamiltonian:
      C. Freysoldt, S. Boeck, and J. Neugebauer, Phys. Rev. B 79, 241103(R) (2009)

This list may not be complete. Please suggest additional citations or
report any other bugs at https://github.com/shankar1729/jdftx/issues

Initialization completed successfully at t[s]:   1091.08

Fluid solver invoked on fresh (partially random / LCAO) wavefunctions
Running a vacuum solve first:

-------- Initial electronic minimization -----------
	FillingsUpdate:  mu: -0.152205145  nElectrons: 400.000000  magneticMoment: [ Abs: 0.01047  Tot: -0.00853 ]
ElecMinimize: Iter:   0  F: -1222.846912448061403  |grad|_K:  4.877e-05  alpha:  1.000e+00
	FillingsUpdate:  mu: -0.067634705  nElectrons: 400.000000  magneticMoment: [ Abs: 0.00749  Tot: -0.00631 ]
	SubspaceRotationAdjust: set factor to 0.697
ElecMinimize: Iter:   1  F: -1223.737139691019138  |grad|_K:  3.142e-05  alpha:  9.122e-01  linmin: -1.414e-05  t[s]:   1252.89
	FillingsUpdate:  mu: -0.123473603  nElectrons: 400.000000  magneticMoment: [ Abs: 0.00678  Tot: -0.00578 ]
	SubspaceRotationAdjust: set factor to 0.394
ElecMinimize: Iter:   2  F: -1223.826805739211295  |grad|_K:  2.088e-05  alpha:  2.771e-01  linmin:  4.825e-04  t[s]:   1352.56
	FillingsUpdate:  mu: -0.110893542  nElectrons: 400.000000  magneticMoment: [ Abs: 0.00520  Tot: -0.00449 ]
	SubspaceRotationAdjust: set factor to 0.593
ElecMinimize: Iter:   3  F: -1223.926017791132381  |grad|_K:  8.415e-06  alpha:  6.495e-01  linmin:  1.633e-04  t[s]:   1451.75
	FillingsUpdate:  mu: -0.104053333  nElectrons: 400.000000  magneticMoment: [ Abs: 0.00456  Tot: -0.00397 ]
	SubspaceRotationAdjust: set factor to 0.609
ElecMinimize: Iter:   4  F: -1223.945520314142414  |grad|_K:  5.186e-06  alpha:  6.870e-01  linmin:  1.869e-05  t[s]:   1551.68
	FillingsUpdate:  mu: -0.111613413  nElectrons: 400.000000  magneticMoment: [ Abs: 0.00390  Tot: -0.00343 ]
	SubspaceRotationAdjust: set factor to 0.547
ElecMinimize: Iter:   5  F: -1223.952839241092761  |grad|_K:  3.780e-06  alpha:  6.645e-01  linmin:  4.424e-06  t[s]:   1652.20
	FillingsUpdate:  mu: -0.106027317  nElectrons: 400.000000  magneticMoment: [ Abs: 0.00339  Tot: -0.00298 ]
	SubspaceRotationAdjust: set factor to 0.445
ElecMinimize: Iter:   6  F: -1223.955620433025842  |grad|_K:  2.248e-06  alpha:  4.717e-01  linmin:  1.730e-06  t[s]:   1751.73
	FillingsUpdate:  mu: -0.107697125  nElectrons: 400.000000  magneticMoment: [ Abs: 0.00284  Tot: -0.00250 ]
	SubspaceRotationAdjust: set factor to 0.472
ElecMinimize: Iter:   7  F: -1223.957035609373634  |grad|_K:  1.236e-06  alpha:  6.841e-01  linmin:  8.458e-06  t[s]:   1851.42
	FillingsUpdate:  mu: -0.108461697  nElectrons: 400.000000  magneticMoment: [ Abs: 0.00249  Tot: -0.00218 ]
	SubspaceRotationAdjust: set factor to 0.508
ElecMinimize: Iter:   8  F: -1223.957446916316258  |grad|_K:  8.262e-07  alpha:  6.590e-01  linmin:  1.537e-06  t[s]:   1951.45
	FillingsUpdate:  mu: -0.107760027  nElectrons: 400.000000  magneticMoment: [ Abs: 0.00218  Tot: -0.00191 ]
	SubspaceRotationAdjust: set factor to 0.517
ElecMinimize: Iter:   9  F: -1223.957617690500911  |grad|_K:  6.126e-07  alpha:  6.091e-01  linmin:  1.187e-06  t[s]:   2051.61
	FillingsUpdate:  mu: -0.108564611  nElectrons: 400.000000  magneticMoment: [ Abs: 0.00172  Tot: -0.00150 ]
	SubspaceRotationAdjust: set factor to 0.497
ElecMinimize: Iter:  10  F: -1223.957748262780569  |grad|_K:  4.974e-07  alpha:  8.493e-01  linmin:  3.949e-06  t[s]:   2151.63
	FillingsUpdate:  mu: -0.108117119  nElectrons: 400.000000  magneticMoment: [ Abs: 0.00126  Tot: -0.00109 ]
	SubspaceRotationAdjust: set factor to 0.483
ElecMinimize: Iter:  11  F: -1223.957832297634468  |grad|_K:  4.373e-07  alpha:  8.318e-01  linmin:  9.480e-07  t[s]:   2251.44
	FillingsUpdate:  mu: -0.108105585  nElectrons: 400.000000  magneticMoment: [ Abs: 0.00081  Tot: -0.00070 ]
	SubspaceRotationAdjust: set factor to 0.528
ElecMinimize: Iter:  12  F: -1223.957892584975752  |grad|_K:  3.812e-07  alpha:  7.687e-01  linmin:  7.145e-07  t[s]:   2350.69
	FillingsUpdate:  mu: -0.108393664  nElectrons: 400.000000  magneticMoment: [ Abs: 0.00036  Tot: -0.00031 ]
	SubspaceRotationAdjust: set factor to 0.582
ElecMinimize: Iter:  13  F: -1223.957943422686185  |grad|_K:  3.225e-07  alpha:  8.527e-01  linmin:  1.294e-06  t[s]:   2450.28
	FillingsUpdate:  mu: -0.107978109  nElectrons: 400.000000  magneticMoment: [ Abs: 0.00002  Tot: +0.00001 ]
	SubspaceRotationAdjust: set factor to 0.608
ElecMinimize: Iter:  14  F: -1223.957980816584950  |grad|_K:  2.768e-07  alpha:  8.769e-01  linmin:  6.885e-07  t[s]:   2550.56
	FillingsUpdate:  mu: -0.108229539  nElectrons: 400.000000  magneticMoment: [ Abs: 0.00019  Tot: +0.00016 ]
	SubspaceRotationAdjust: set factor to 0.589
ElecMinimize: Iter:  15  F: -1223.957998301070802  |grad|_K:  1.851e-07  alpha:  5.558e-01  linmin: -2.540e-08  t[s]:   2650.11
	FillingsUpdate:  mu: -0.108079730  nElectrons: 400.000000  magneticMoment: [ Abs: 0.00026  Tot: +0.00023 ]
	SubspaceRotationAdjust: set factor to 0.599
ElecMinimize: Iter:  16  F: -1223.958007242827762  |grad|_K:  1.123e-07  alpha:  6.348e-01  linmin: -2.553e-07  t[s]:   2750.04
	FillingsUpdate:  mu: -0.108169391  nElectrons: 400.000000  magneticMoment: [ Abs: 0.00026  Tot: +0.00023 ]
	SubspaceRotationAdjust: set factor to 0.634
ElecMinimize: Iter:  17  F: -1223.958010629243745  |grad|_K:  7.316e-08  alpha:  6.534e-01  linmin: -1.195e-07  t[s]:   2850.12
	FillingsUpdate:  mu: -0.108152486  nElectrons: 400.000000  magneticMoment: [ Abs: 0.00024  Tot: +0.00021 ]
	SubspaceRotationAdjust: set factor to 0.726
ElecMinimize: Iter:  18  F: -1223.958012016524663  |grad|_K:  4.702e-08  alpha:  6.305e-01  linmin: -4.903e-08  t[s]:   2950.01
	FillingsUpdate:  mu: -0.108157749  nElectrons: 400.000000  magneticMoment: [ Abs: 0.00021  Tot: +0.00018 ]
	SubspaceRotationAdjust: set factor to 0.849
ElecMinimize: Iter:  19  F: -1223.958012610227797  |grad|_K:  3.052e-08  alpha:  6.534e-01  linmin:  6.778e-09  t[s]:   3049.34
	FillingsUpdate:  mu: -0.108165313  nElectrons: 400.000000  magneticMoment: [ Abs: 0.00017  Tot: +0.00015 ]
	SubspaceRotationAdjust: set factor to 0.917
ElecMinimize: Iter:  20  F: -1223.958012877412557  |grad|_K:  2.061e-08  alpha:  6.981e-01  linmin:  3.048e-08  t[s]:   3149.32
	FillingsUpdate:  mu: -0.108151468  nElectrons: 400.000000  magneticMoment: [ Abs: 0.00013  Tot: +0.00011 ]
	SubspaceRotationAdjust: set factor to 0.919
ElecMinimize: Iter:  21  F: -1223.958013001478776  |grad|_K:  1.625e-08  alpha:  7.103e-01  linmin: -2.642e-09  t[s]:   3248.77
	FillingsUpdate:  mu: -0.108174460  nElectrons: 400.000000  magneticMoment: [ Abs: 0.00009  Tot: +0.00008 ]
	SubspaceRotationAdjust: set factor to 0.79
ElecMinimize: Iter:  22  F: -1223.958013064224133  |grad|_K:  1.650e-08  alpha:  5.775e-01  linmin: -2.325e-08  t[s]:   3348.93
	FillingsUpdate:  mu: -0.108149231  nElectrons: 400.000000  magneticMoment: [ Abs: 0.00006  Tot: +0.00005 ]
	SubspaceRotationAdjust: set factor to 0.607
ElecMinimize: Iter:  23  F: -1223.958013111341870  |grad|_K:  1.243e-08  alpha:  4.215e-01  linmin: -1.290e-08  t[s]:   3449.14
	FillingsUpdate:  mu: -0.108157630  nElectrons: 400.000000  magneticMoment: [ Abs: 0.00002  Tot: +0.00002 ]
	SubspaceRotationAdjust: set factor to 0.667
ElecMinimize: Iter:  24  F: -1223.958013155380968  |grad|_K:  1.019e-08  alpha:  6.940e-01  linmin:  8.462e-08  t[s]:   3548.97
	FillingsUpdate:  mu: -0.108165536  nElectrons: 400.000000  magneticMoment: [ Abs: 0.00001  Tot: -0.00001 ]
	SubspaceRotationAdjust: set factor to 0.701
ElecMinimize: Iter:  25  F: -1223.958013185622121  |grad|_K:  8.444e-09  alpha:  7.089e-01  linmin: -4.472e-08  t[s]:   3650.36
	FillingsUpdate:  mu: -0.108151120  nElectrons: 400.000000  magneticMoment: [ Abs: 0.00003  Tot: -0.00002 ]
	SubspaceRotationAdjust: set factor to 0.592
ElecMinimize: Iter:  26  F: -1223.958013202846359  |grad|_K:  7.564e-09  alpha:  5.881e-01  linmin:  4.229e-09  t[s]:   3750.42
	FillingsUpdate:  mu: -0.108159520  nElectrons: 400.000000  magneticMoment: [ Abs: 0.00004  Tot: -0.00003 ]
	SubspaceRotationAdjust: set factor to 0.569
ElecMinimize: Iter:  27  F: -1223.958013215502660  |grad|_K:  5.320e-09  alpha:  5.366e-01  linmin: -2.802e-08  t[s]:   3850.67
	FillingsUpdate:  mu: -0.108159777  nElectrons: 400.000000  magneticMoment: [ Abs: 0.00004  Tot: -0.00003 ]
	SubspaceRotationAdjust: set factor to 0.683
ElecMinimize: Iter:  28  F: -1223.958013223627177  |grad|_K:  3.593e-09  alpha:  6.921e-01  linmin: -2.435e-07  t[s]:   3950.88
	FillingsUpdate:  mu: -0.108155324  nElectrons: 400.000000  magneticMoment: [ Abs: 0.00004  Tot: -0.00003 ]
	SubspaceRotationAdjust: set factor to 0.642
ElecMinimize: Iter:  29  F: -1223.958013226868616  |grad|_K:  2.861e-09  alpha:  6.106e-01  linmin:  2.994e-08  t[s]:   4051.32
ElecMinimize: Converged (|Delta F|<1.000000e-08 for 2 iters).
Setting wave functions to eigenvectors of Hamiltonian
Vacuum energy after initial minimize, F = -1223.958013226868616

	Linear fluid (dielectric constant: 78.4, screening length: 5.74355 Bohr) occupying 0.748794 of unit cell:	Completed after 16 iterations at t[s]:   4076.20

-------- Electronic minimization -----------
	Linear fluid (dielectric constant: 78.4, screening length: 5.74355 Bohr) occupying 0.748794 of unit cell:	Completed after 0 iterations at t[s]:   4101.30
	FillingsUpdate:  mu: -0.195446875  nElectrons: 400.000000  magneticMoment: [ Abs: 0.00004  Tot: -0.00002 ]
ElecMinimize: Iter:   0  F: -1223.946911300801958  |grad|_K:  5.764e-07  alpha:  1.000e+00
	Linear fluid (dielectric constant: 78.4, screening length: 5.74355 Bohr) occupying 0.749233 of unit cell:	Completed after 9 iterations at t[s]:   4182.03
	Linear fluid (dielectric constant: 78.4, screening length: 5.74355 Bohr) occupying 0.749290 of unit cell:	Completed after 2 iterations at t[s]:   4215.94
	FillingsUpdate:  mu: -0.193402926  nElectrons: 400.000000  magneticMoment: [ Abs: 0.00004  Tot: -0.00002 ]
	SubspaceRotationAdjust: set factor to 0.423
ElecMinimize: Iter:   1  F: -1223.947066689031999  |grad|_K:  4.525e-07  alpha:  1.133e+00  linmin: -4.129e-06  t[s]:   4258.90
	Linear fluid (dielectric constant: 78.4, screening length: 5.74355 Bohr) occupying 0.749613 of unit cell:	Completed after 9 iterations at t[s]:   4291.98
	Linear fluid (dielectric constant: 78.4, screening length: 5.74355 Bohr) occupying 0.749376 of unit cell:	Completed after 9 iterations at t[s]:   4327.91
	FillingsUpdate:  mu: -0.194092213  nElectrons: 400.000000  magneticMoment: [ Abs: 0.00003  Tot: -0.00002 ]
	SubspaceRotationAdjust: set factor to 0.227
ElecMinimize: Iter:   2  F: -1223.947092068973461  |grad|_K:  1.451e-07  alpha:  2.981e-01  linmin:  8.755e-07  t[s]:   4372.41
	Linear fluid (dielectric constant: 78.4, screening length: 5.74355 Bohr) occupying 0.749389 of unit cell:	Completed after 2 iterations at t[s]:   4403.75
	Linear fluid (dielectric constant: 78.4, screening length: 5.74355 Bohr) occupying 0.749406 of unit cell:	Completed after 2 iterations at t[s]:   4437.07
	FillingsUpdate:  mu: -0.194098228  nElectrons: 400.000000  magneticMoment: [ Abs: 0.00003  Tot: -0.00002 ]
	SubspaceRotationAdjust: set factor to 0.279
ElecMinimize: Iter:   3  F: -1223.947098492538771  |grad|_K:  7.828e-08  alpha:  7.205e-01  linmin: -8.299e-06  t[s]:   4480.08
	Linear fluid (dielectric constant: 78.4, screening length: 5.74355 Bohr) occupying 0.749419 of unit cell:	Completed after 3 iterations at t[s]:   4511.48
	Linear fluid (dielectric constant: 78.4, screening length: 5.74355 Bohr) occupying 0.749421 of unit cell:	Completed after 0 iterations at t[s]:   4544.86
	FillingsUpdate:  mu: -0.194086141  nElectrons: 400.000000  magneticMoment: [ Abs: 0.00002  Tot: -0.00002 ]
	SubspaceRotationAdjust: set factor to 0.305
ElecMinimize: Iter:   4  F: -1223.947100698887198  |grad|_K:  4.542e-08  alpha:  8.284e-01  linmin: -7.482e-06  t[s]:   4587.36
	Linear fluid (dielectric constant: 78.4, screening length: 5.74355 Bohr) occupying 0.749428 of unit cell:	Completed after 0 iterations at t[s]:   4618.40
	Linear fluid (dielectric constant: 78.4, screening length: 5.74355 Bohr) occupying 0.749430 of unit cell:	Completed after 1 iterations at t[s]:   4650.65
	FillingsUpdate:  mu: -0.194029330  nElectrons: 400.000000  magneticMoment: [ Abs: 0.00002  Tot: -0.00002 ]
	SubspaceRotationAdjust: set factor to 0.305
ElecMinimize: Iter:   5  F: -1223.947101441691757  |grad|_K:  3.325e-08  alpha:  1.024e+00  linmin:  6.256e-05  t[s]:   4693.12
	Linear fluid (dielectric constant: 78.4, screening length: 5.74355 Bohr) occupying 0.749431 of unit cell:	Completed after 2 iterations at t[s]:   4724.70
	Linear fluid (dielectric constant: 78.4, screening length: 5.74355 Bohr) occupying 0.749430 of unit cell:	Completed after 0 iterations at t[s]:   4757.48
	FillingsUpdate:  mu: -0.194073754  nElectrons: 400.000000  magneticMoment: [ Abs: 0.00002  Tot: -0.00001 ]
	SubspaceRotationAdjust: set factor to 0.253
ElecMinimize: Iter:   6  F: -1223.947101687538634  |grad|_K:  2.293e-08  alpha:  5.914e-01  linmin:  8.481e-05  t[s]:   4800.55
	Linear fluid (dielectric constant: 78.4, screening length: 5.74355 Bohr) occupying 0.749429 of unit cell:	Completed after 0 iterations at t[s]:   4831.33
	Linear fluid (dielectric constant: 78.4, screening length: 5.74355 Bohr) occupying 0.749428 of unit cell:	Completed after 0 iterations at t[s]:   4863.19
	FillingsUpdate:  mu: -0.194074259  nElectrons: 400.000000  magneticMoment: [ Abs: 0.00002  Tot: -0.00001 ]
	SubspaceRotationAdjust: set factor to 0.385
ElecMinimize: Iter:   7  F: -1223.947101830185829  |grad|_K:  1.593e-08  alpha:  7.949e-01  linmin: -1.584e-07  t[s]:   4905.74
	Linear fluid (dielectric constant: 78.4, screening length: 5.74355 Bohr) occupying 0.749425 of unit cell:	Completed after 2 iterations at t[s]:   4937.32
	Linear fluid (dielectric constant: 78.4, screening length: 5.74355 Bohr) occupying 0.749427 of unit cell:	Completed after 0 iterations at t[s]:   4970.08
ElecMinimize: 	Step increased F by 4.925869e-08, reducing alpha to 1.629838e-02.
	Linear fluid (dielectric constant: 78.4, screening length: 5.74355 Bohr) occupying 0.749428 of unit cell:	Completed after 0 iterations at t[s]:   5038.32
ElecMinimize: 	Step increased F by 1.635954e-08, reducing alpha to 1.629838e-03.
	Linear fluid (dielectric constant: 78.4, screening length: 5.74355 Bohr) occupying 0.749428 of unit cell:	Completed after 0 iterations at t[s]:   5105.81
ElecMinimize: 	Step increased F by 1.325316e-08, reducing alpha to 1.629838e-04.
ElecMinimize: 	Step failed to reduce F after 3 attempts. Quitting step.
ElecMinimize: 	Undoing step.
	Linear fluid (dielectric constant: 78.4, screening length: 5.74355 Bohr) occupying 0.749428 of unit cell:	Completed after 0 iterations at t[s]:   5173.29
ElecMinimize: 	Step failed: resetting search direction.
	FillingsUpdate:  mu: -0.194004557  nElectrons: 400.000000  magneticMoment: [ Abs: 0.00002  Tot: -0.00001 ]
	SubspaceRotationAdjust: set factor to 0.302
ElecMinimize: Iter:   8  F: -1223.947101816981331  |grad|_K:  3.467e-08  alpha:  1.630e-04
	Linear fluid (dielectric constant: 78.4, screening length: 5.74355 Bohr) occupying 0.749425 of unit cell:	Completed after 2 iterations at t[s]:   5246.75
	Linear fluid (dielectric constant: 78.4, screening length: 5.74355 Bohr) occupying 0.749427 of unit cell:	Completed after 2 iterations at t[s]:   5279.75
ElecMinimize: 	Step increased F by 4.284379e-08, reducing alpha to 2.221404e-02.
	Linear fluid (dielectric constant: 78.4, screening length: 5.74355 Bohr) occupying 0.749428 of unit cell:	Completed after 0 iterations at t[s]:   5347.64
ElecMinimize: 	Step increased F by 1.906665e-08, reducing alpha to 2.221404e-03.
	Linear fluid (dielectric constant: 78.4, screening length: 5.74355 Bohr) occupying 0.749428 of unit cell:	Completed after 0 iterations at t[s]:   5415.45
ElecMinimize: 	Step increased F by 1.730791e-08, reducing alpha to 2.221404e-04.
ElecMinimize: 	Step failed to reduce F after 3 attempts. Quitting step.
ElecMinimize: 	Undoing step.
	Linear fluid (dielectric constant: 78.4, screening length: 5.74355 Bohr) occupying 0.749428 of unit cell:	Completed after 0 iterations at t[s]:   5482.71
ElecMinimize: 	Step failed along negative gradient direction.
ElecMinimize: Probably at roundoff error limit. (Stopping)
Setting wave functions to eigenvectors of Hamiltonian
Single-point solvation energy estimate, DeltaF = +0.010911427157907

# Ionic positions in lattice coordinates:
ion Nb   0.083329963166667   0.083330011645833   0.500000008666667 1
ion Nb   0.333329963166667   0.083330011645833   0.500000008666667 1
ion Nb   0.583329963166667   0.083330011645833   0.500000008666667 1
ion Nb   0.833329963166667   0.083330011645833   0.500000008666667 1
ion Nb   0.083329963166667   0.333330011645833   0.500000008666667 1
ion Nb   0.333329963166667   0.333330011645833   0.500000008666667 1
ion Nb   0.583329963166667   0.333330011645833   0.500000008666667 1
ion Nb   0.833329963166667   0.333330011645833   0.500000008666667 1
ion Nb   0.083329963166667   0.583330011645833   0.500000008666667 1
ion Nb   0.333329963166667   0.583330011645833   0.500000008666667 1
ion Nb   0.583329963166667   0.583330011645833   0.500000008666667 1
ion Nb   0.833329963166667   0.583330011645833   0.500000008666667 1
ion Nb   0.083329963166667   0.833330011645833   0.500000008666667 1
ion Nb   0.333329963166667   0.833330011645833   0.500000008666667 1
ion Nb   0.583329963166667   0.833330011645833   0.500000008666667 1
ion Nb   0.833329963166667   0.833330011645833   0.500000008666667 1
ion Se   0.166669981197917   0.166670029677083   0.591690019666667 1
ion Se   0.166669981197917   0.166670029677083   0.408309997666667 1
ion Se   0.416669981197917   0.166670029677083   0.591690019666667 1
ion Se   0.416669981197917   0.166670029677083   0.408309997666667 1
ion Se   0.666669981197917   0.166670029677083   0.591690019666667 1
ion Se   0.666669981197917   0.166670029677083   0.408309997666667 1
ion Se   0.916669981197917   0.166670029677083   0.591690019666667 1
ion Se   0.916669981197917   0.166670029677083   0.408309997666667 1
ion Se   0.166669981197917   0.416670029677083   0.591690019666667 1
ion Se   0.166669981197917   0.416670029677083   0.408309997666667 1
ion Se   0.416669981197917   0.416670029677083   0.591690019666667 1
ion Se   0.416669981197917   0.416670029677083   0.408309997666667 1
ion Se   0.666669981197917   0.416670029677083   0.591690019666667 1
ion Se   0.666669981197917   0.416670029677083   0.408309997666667 1
ion Se   0.916669981197917   0.416670029677083   0.591690019666667 1
ion Se   0.916669981197917   0.416670029677083   0.408309997666667 1
ion Se   0.166669981197917   0.666670029677083   0.591690019666667 1
ion Se   0.166669981197917   0.666670029677083   0.408309997666667 1
ion Se   0.416669981197917   0.666670029677083   0.591690019666667 1
ion Se   0.416669981197917   0.666670029677083   0.408309997666667 1
ion Se   0.666669981197917   0.666670029677083   0.591690019666667 1
ion Se   0.666669981197917   0.666670029677083   0.408309997666667 1
ion Se   0.916669981197917   0.666670029677083   0.591690019666667 1
ion Se   0.916669981197917   0.666670029677083   0.408309997666667 1
ion Se   0.166669981197917   0.916670029677083   0.591690019666667 1
ion Se   0.166669981197917   0.916670029677083   0.408309997666667 1
ion Se   0.416669981197917   0.916670029677083   0.591690019666667 1
ion Se   0.416669981197917   0.916670029677083   0.408309997666667 1
ion Se   0.666669981197917   0.916670029677083   0.591690019666667 1
ion Se   0.666669981197917   0.916670029677083   0.408309997666667 1
ion Se   0.916669981197917   0.916670029677083   0.591690019666667 1
ion Se   0.916669981197917   0.916670029677083   0.408309997666667 1


# Forces in Lattice coordinates:
force Nb   0.000669797217406   0.000669797217406   0.000000000000000 1
force Nb   0.000669797217406   0.000669797217406  -0.000000000000000 1
force Nb   0.000669797217406   0.000669797217406  -0.000000000000000 1
force Nb   0.000669797217406   0.000669797217406   0.000000000000000 1
force Nb   0.000669797217406   0.000669797217406   0.000000000000000 1
force Nb   0.000669797217406   0.000669797217406  -0.000000000000000 1
force Nb   0.000669797217406   0.000669797217406   0.000000000000000 1
force Nb   0.000669797217406   0.000669797217406  -0.000000000000000 1
force Nb   0.000669797217406   0.000669797217406  -0.000000000000000 1
force Nb   0.000669797217406   0.000669797217406  -0.000000000000000 1
force Nb   0.000669797217406   0.000669797217406  -0.000000000000000 1
force Nb   0.000669797217406   0.000669797217406   0.000000000000000 1
force Nb   0.000669797217406   0.000669797217406   0.000000000000000 1
force Nb   0.000669797217406   0.000669797217406   0.000000000000000 1
force Nb   0.000669797217406   0.000669797217406  -0.000000000000000 1
force Nb   0.000669797217406   0.000669797217406  -0.000000000000000 1
force Se  -0.000425069269262  -0.000425069269262   0.046291409702254 1
force Se  -0.000425069269262  -0.000425069269262  -0.046291409702369 1
force Se  -0.000425069269262  -0.000425069269262   0.046291409702368 1
force Se  -0.000425069269262  -0.000425069269262  -0.046291409702141 1
force Se  -0.000425069269262  -0.000425069269262   0.046291409702142 1
force Se  -0.000425069269262  -0.000425069269262  -0.046291409702368 1
force Se  -0.000425069269262  -0.000425069269262   0.046291409702141 1
force Se  -0.000425069269262  -0.000425069269262  -0.046291409702254 1
force Se  -0.000425069269262  -0.000425069269262   0.046291409702368 1
force Se  -0.000425069269262  -0.000425069269262  -0.046291409702368 1
force Se  -0.000425069269262  -0.000425069269262   0.046291409702254 1
force Se  -0.000425069269262  -0.000425069269262  -0.046291409702368 1
force Se  -0.000425069269262  -0.000425069269262   0.046291409702369 1
force Se  -0.000425069269262  -0.000425069269262  -0.046291409702368 1
force Se  -0.000425069269262  -0.000425069269262   0.046291409702368 1
force Se  -0.000425069269262  -0.000425069269262  -0.046291409702368 1
force Se  -0.000425069269262  -0.000425069269262   0.046291409702367 1
force Se  -0.000425069269262  -0.000425069269262  -0.046291409702255 1
force Se  -0.000425069269262  -0.000425069269262   0.046291409702367 1
force Se  -0.000425069269262  -0.000425069269262  -0.046291409702142 1
force Se  -0.000425069269262  -0.000425069269262   0.046291409702366 1
force Se  -0.000425069269262  -0.000425069269262  -0.046291409702254 1
force Se  -0.000425069269262  -0.000425069269262   0.046291409702367 1
force Se  -0.000425069269262  -0.000425069269262  -0.046291409702254 1
force Se  -0.000425069269262  -0.000425069269262   0.046291409702368 1
force Se  -0.000425069269262  -0.000425069269262  -0.046291409702369 1
force Se  -0.000425069269262  -0.000425069269262   0.046291409702254 1
force Se  -0.000425069269262  -0.000425069269262  -0.046291409702256 1
force Se  -0.000425069269262  -0.000425069269262   0.046291409702254 1
force Se  -0.000425069269262  -0.000425069269262  -0.046291409702141 1
force Se  -0.000425069269262  -0.000425069269262   0.046291409702367 1
force Se  -0.000425069269262  -0.000425069269262  -0.046291409702255 1

# Energy components:
   A_diel =        0.0107174315365293
   Eewald =     6746.7833130158442145
       EH =     7751.5801369354649069
     Eloc =   -16078.1222102167339472
      Enl =      239.9633301314447920
      Exc =     -622.7951827745387163
 Exc_core =      418.7155152927576864
       KE =      320.0174828866037160
-------------------------------------
     Etot =    -1223.8468972976220357
       TS =        0.1002045020886778
-------------------------------------
        F =    -1223.9471017997107083

IonicMinimize: Iter:   0  F: -1223.947101799710708  |grad|_K:  6.288e-04  t[s]:   5547.81

#--- Lowdin population analysis ---
# oxidation-state Nb -0.568 -0.568 -0.568 -0.568 -0.568 -0.568 -0.568 -0.568 -0.568 -0.568 -0.568 -0.568 -0.568 -0.568 -0.568 -0.568
# magnetic-moments Nb -0.000 -0.000 -0.000 -0.000 -0.000 -0.000 -0.000 -0.000 -0.000 -0.000 -0.000 -0.000 -0.000 -0.000 -0.000 -0.000
# oxidation-state Se +0.326 +0.326 +0.326 +0.326 +0.326 +0.326 +0.326 +0.326 +0.326 +0.326 +0.326 +0.326 +0.326 +0.326 +0.326 +0.326 +0.326 +0.326 +0.326 +0.326 +0.326 +0.326 +0.326 +0.326 +0.326 +0.326 +0.326 +0.326 +0.326 +0.326 +0.326 +0.326
# magnetic-moments Se -0.000 -0.000 -0.000 -0.000 -0.000 -0.000 -0.000 -0.000 -0.000 -0.000 -0.000 -0.000 -0.000 -0.000 -0.000 -0.000 -0.000 -0.000 -0.000 -0.000 -0.000 -0.000 -0.000 -0.000 -0.000 -0.000 -0.000 -0.000 -0.000 -0.000 -0.000 -0.000

	Linear fluid (dielectric constant: 78.4, screening length: 5.74355 Bohr) occupying 0.749378 of unit cell:	Completed after 4 iterations at t[s]:   5580.68

-------- Electronic minimization -----------
	Linear fluid (dielectric constant: 78.4, screening length: 5.74355 Bohr) occupying 0.749378 of unit cell:	Completed after 0 iterations at t[s]:   5605.78
	FillingsUpdate:  mu: -0.193758701  nElectrons: 400.000000  magneticMoment: [ Abs: 0.00003  Tot: -0.00001 ]
ElecMinimize: Iter:   0  F: -1223.947141751183153  |grad|_K:  1.518e-07  alpha:  1.000e+00
	Linear fluid (dielectric constant: 78.4, screening length: 5.74355 Bohr) occupying 0.749374 of unit cell:	Completed after 6 iterations at t[s]:   5685.20
	Linear fluid (dielectric constant: 78.4, screening length: 5.74355 Bohr) occupying 0.749376 of unit cell:	Completed after 3 iterations at t[s]:   5719.35
	FillingsUpdate:  mu: -0.194204137  nElectrons: 400.000000  magneticMoment: [ Abs: 0.00003  Tot: -0.00001 ]
	SubspaceRotationAdjust: set factor to 0.279
ElecMinimize: Iter:   1  F: -1223.947147086168570  |grad|_K:  8.320e-08  alpha:  5.567e-01  linmin:  2.801e-04  t[s]:   5762.54
	Linear fluid (dielectric constant: 78.4, screening length: 5.74355 Bohr) occupying 0.749378 of unit cell:	Completed after 2 iterations at t[s]:   5794.04
	Linear fluid (dielectric constant: 78.4, screening length: 5.74355 Bohr) occupying 0.749380 of unit cell:	Completed after 2 iterations at t[s]:   5827.51
	FillingsUpdate:  mu: -0.194108988  nElectrons: 400.000000  magneticMoment: [ Abs: 0.00002  Tot: -0.00001 ]
	SubspaceRotationAdjust: set factor to 0.413
ElecMinimize: Iter:   2  F: -1223.947150181229290  |grad|_K:  6.565e-08  alpha:  1.088e+00  linmin: -1.430e-04  t[s]:   5870.48
	Linear fluid (dielectric constant: 78.4, screening length: 5.74355 Bohr) occupying 0.749386 of unit cell:	Completed after 3 iterations at t[s]:   5902.17
	Linear fluid (dielectric constant: 78.4, screening length: 5.74355 Bohr) occupying 0.749384 of unit cell:	Completed after 0 iterations at t[s]:   5935.56
	FillingsUpdate:  mu: -0.194030245  nElectrons: 400.000000  magneticMoment: [ Abs: 0.00002  Tot: -0.00001 ]
	SubspaceRotationAdjust: set factor to 0.478
ElecMinimize: Iter:   3  F: -1223.947151572965367  |grad|_K:  4.428e-08  alpha:  7.350e-01  linmin:  2.398e-04  t[s]:   5978.67
	Linear fluid (dielectric constant: 78.4, screening length: 5.74355 Bohr) occupying 0.749386 of unit cell:	Completed after 1 iterations at t[s]:   6009.68
	Linear fluid (dielectric constant: 78.4, screening length: 5.74355 Bohr) occupying 0.749385 of unit cell:	Completed after 0 iterations at t[s]:   6042.08
	FillingsUpdate:  mu: -0.194055342  nElectrons: 400.000000  magneticMoment: [ Abs: 0.00001  Tot: -0.00001 ]
	SubspaceRotationAdjust: set factor to 0.625
ElecMinimize: Iter:   4  F: -1223.947151898910079  |grad|_K:  1.754e-08  alpha:  5.364e-01  linmin: -2.012e-04  t[s]:   6084.40
	Linear fluid (dielectric constant: 78.4, screening length: 5.74355 Bohr) occupying 0.749386 of unit cell:	Completed after 0 iterations at t[s]:   6115.60
	Linear fluid (dielectric constant: 78.4, screening length: 5.74355 Bohr) occupying 0.749386 of unit cell:	Completed after 0 iterations at t[s]:   6147.78
	FillingsUpdate:  mu: -0.194050521  nElectrons: 400.000000  magneticMoment: [ Abs: 0.00001  Tot: -0.00001 ]
	SubspaceRotationAdjust: set factor to 0.769
ElecMinimize: Iter:   5  F: -1223.947151999126163  |grad|_K:  9.366e-09  alpha:  6.538e-01  linmin: -9.056e-05  t[s]:   6190.01
	Linear fluid (dielectric constant: 78.4, screening length: 5.74355 Bohr) occupying 0.749386 of unit cell:	Completed after 0 iterations at t[s]:   6220.79
	Linear fluid (dielectric constant: 78.4, screening length: 5.74355 Bohr) occupying 0.749386 of unit cell:	Completed after 0 iterations at t[s]:   6252.82
	FillingsUpdate:  mu: -0.194050904  nElectrons: 400.000000  magneticMoment: [ Abs: 0.00001  Tot: -0.00001 ]
	SubspaceRotationAdjust: set factor to 0.873
ElecMinimize: Iter:   6  F: -1223.947152029553081  |grad|_K:  5.479e-09  alpha:  6.772e-01  linmin:  3.337e-07  t[s]:   6295.73
	Linear fluid (dielectric constant: 78.4, screening length: 5.74355 Bohr) occupying 0.749386 of unit cell:	Completed after 0 iterations at t[s]:   6326.98
	Linear fluid (dielectric constant: 78.4, screening length: 5.74355 Bohr) occupying 0.749386 of unit cell:	Completed after 0 iterations at t[s]:   6358.51
	FillingsUpdate:  mu: -0.194051110  nElectrons: 400.000000  magneticMoment: [ Abs: 0.00001  Tot: -0.00000 ]
	SubspaceRotationAdjust: set factor to 1.01
ElecMinimize: Iter:   7  F: -1223.947152036485477  |grad|_K:  2.835e-09  alpha:  5.659e-01  linmin: -4.032e-07  t[s]:   6400.95
	Linear fluid (dielectric constant: 78.4, screening length: 5.74355 Bohr) occupying 0.749385 of unit cell:	Completed after 0 iterations at t[s]:   6431.62
	Linear fluid (dielectric constant: 78.4, screening length: 5.74355 Bohr) occupying 0.749385 of unit cell:	Completed after 0 iterations at t[s]:   6464.20
	FillingsUpdate:  mu: -0.194051279  nElectrons: 400.000000  magneticMoment: [ Abs: 0.00000  Tot: -0.00000 ]
	SubspaceRotationAdjust: set factor to 1.21
ElecMinimize: Iter:   8  F: -1223.947152039180992  |grad|_K:  1.615e-09  alpha:  8.348e-01  linmin:  6.737e-07  t[s]:   6506.80
ElecMinimize: Converged (|Delta F|<1.000000e-08 for 2 iters).
Setting wave functions to eigenvectors of Hamiltonian

# Ionic positions in lattice coordinates:
ion Nb   0.083330679705674   0.083330728184841   0.500000008666667 1
ion Nb   0.333330679705674   0.083330728184841   0.500000008666667 1
ion Nb   0.583330679705674   0.083330728184841   0.500000008666667 1
ion Nb   0.833330679705674   0.083330728184841   0.500000008666667 1
ion Nb   0.083330679705674   0.333330728184841   0.500000008666667 1
ion Nb   0.333330679705674   0.333330728184841   0.500000008666667 1
ion Nb   0.583330679705674   0.333330728184841   0.500000008666667 1
ion Nb   0.833330679705674   0.333330728184841   0.500000008666667 1
ion Nb   0.083330679705674   0.583330728184841   0.500000008666667 1
ion Nb   0.333330679705674   0.583330728184841   0.500000008666667 1
ion Nb   0.583330679705674   0.583330728184841   0.500000008666667 1
ion Nb   0.833330679705674   0.583330728184841   0.500000008666667 1
ion Nb   0.083330679705674   0.833330728184841   0.500000008666667 1
ion Nb   0.333330679705674   0.833330728184841   0.500000008666667 1
ion Nb   0.583330679705674   0.833330728184841   0.500000008666667 1
ion Nb   0.833330679705674   0.833330728184841   0.500000008666667 1
ion Se   0.166669622928413   0.166669671407580   0.591728439069997 1
ion Se   0.166669622928413   0.166669671407580   0.408271578263337 1
ion Se   0.416669622928413   0.166669671407580   0.591728439069997 1
ion Se   0.416669622928413   0.166669671407580   0.408271578263337 1
ion Se   0.666669622928413   0.166669671407580   0.591728439069997 1
ion Se   0.666669622928413   0.166669671407580   0.408271578263337 1
ion Se   0.916669622928413   0.166669671407580   0.591728439069997 1
ion Se   0.916669622928413   0.166669671407580   0.408271578263337 1
ion Se   0.166669622928413   0.416669671407580   0.591728439069997 1
ion Se   0.166669622928413   0.416669671407580   0.408271578263337 1
ion Se   0.416669622928413   0.416669671407580   0.591728439069997 1
ion Se   0.416669622928413   0.416669671407580   0.408271578263337 1
ion Se   0.666669622928413   0.416669671407580   0.591728439069997 1
ion Se   0.666669622928413   0.416669671407580   0.408271578263337 1
ion Se   0.916669622928413   0.416669671407580   0.591728439069997 1
ion Se   0.916669622928413   0.416669671407580   0.408271578263337 1
ion Se   0.166669622928413   0.666669671407579   0.591728439069997 1
ion Se   0.166669622928413   0.666669671407579   0.408271578263337 1
ion Se   0.416669622928413   0.666669671407579   0.591728439069997 1
ion Se   0.416669622928413   0.666669671407579   0.408271578263337 1
ion Se   0.666669622928413   0.666669671407579   0.591728439069997 1
ion Se   0.666669622928413   0.666669671407579   0.408271578263337 1
ion Se   0.916669622928413   0.666669671407579   0.591728439069997 1
ion Se   0.916669622928413   0.666669671407579   0.408271578263337 1
ion Se   0.166669622928413   0.916669671407579   0.591728439069997 1
ion Se   0.166669622928413   0.916669671407579   0.408271578263337 1
ion Se   0.416669622928413   0.916669671407579   0.591728439069997 1
ion Se   0.416669622928413   0.916669671407579   0.408271578263337 1
ion Se   0.666669622928413   0.916669671407579   0.591728439069997 1
ion Se   0.666669622928413   0.916669671407579   0.408271578263337 1
ion Se   0.916669622928413   0.916669671407579   0.591728439069997 1
ion Se   0.916669622928413   0.916669671407579   0.408271578263337 1


# Forces in Lattice coordinates:
force Nb   0.000479069103084   0.000479069103084  -0.000000000000000 1
force Nb   0.000479069103084   0.000479069103084   0.000000000000000 1
force Nb   0.000479069103084   0.000479069103084   0.000000000000000 1
force Nb   0.000479069103084   0.000479069103084  -0.000000000000000 1
force Nb   0.000479069103084   0.000479069103084   0.000000000000000 1
force Nb   0.000479069103084   0.000479069103084   0.000000000000000 1
force Nb   0.000479069103084   0.000479069103084  -0.000000000000000 1
force Nb   0.000479069103084   0.000479069103084   0.000000000000000 1
force Nb   0.000479069103084   0.000479069103084  -0.000000000000000 1
force Nb   0.000479069103084   0.000479069103084  -0.000000000000000 1
force Nb   0.000479069103084   0.000479069103084   0.000000000000000 1
force Nb   0.000479069103084   0.000479069103084  -0.000000000000000 1
force Nb   0.000479069103084   0.000479069103084  -0.000000000000000 1
force Nb   0.000479069103084   0.000479069103084   0.000000000000000 1
force Nb   0.000479069103084   0.000479069103084   0.000000000000000 1
force Nb   0.000479069103084   0.000479069103084   0.000000000000000 1
force Se  -0.000359297830395  -0.000359297830395   0.037360631402917 1
force Se  -0.000359297830395  -0.000359297830395  -0.037360631402919 1
force Se  -0.000359297830395  -0.000359297830395   0.037360631402803 1
force Se  -0.000359297830395  -0.000359297830395  -0.037360631402918 1
force Se  -0.000359297830395  -0.000359297830395   0.037360631402691 1
force Se  -0.000359297830395  -0.000359297830395  -0.037360631403145 1
force Se  -0.000359297830395  -0.000359297830395   0.037360631402691 1
force Se  -0.000359297830395  -0.000359297830395  -0.037360631402920 1
force Se  -0.000359297830395  -0.000359297830395   0.037360631402576 1
force Se  -0.000359297830395  -0.000359297830395  -0.037360631402919 1
force Se  -0.000359297830395  -0.000359297830395   0.037360631402689 1
force Se  -0.000359297830395  -0.000359297830395  -0.037360631403033 1
force Se  -0.000359297830395  -0.000359297830395   0.037360631402916 1
force Se  -0.000359297830395  -0.000359297830395  -0.037360631403146 1
force Se  -0.000359297830395  -0.000359297830395   0.037360631402803 1
force Se  -0.000359297830395  -0.000359297830395  -0.037360631402920 1
force Se  -0.000359297830395  -0.000359297830395   0.037360631402691 1
force Se  -0.000359297830395  -0.000359297830395  -0.037360631402918 1
force Se  -0.000359297830395  -0.000359297830395   0.037360631402804 1
force Se  -0.000359297830395  -0.000359297830395  -0.037360631402918 1
force Se  -0.000359297830395  -0.000359297830395   0.037360631402804 1
force Se  -0.000359297830395  -0.000359297830395  -0.037360631402919 1
force Se  -0.000359297830395  -0.000359297830395   0.037360631402577 1
force Se  -0.000359297830395  -0.000359297830395  -0.037360631402918 1
force Se  -0.000359297830395  -0.000359297830395   0.037360631402691 1
force Se  -0.000359297830395  -0.000359297830395  -0.037360631403032 1
force Se  -0.000359297830395  -0.000359297830395   0.037360631402803 1
force Se  -0.000359297830395  -0.000359297830395  -0.037360631403033 1
force Se  -0.000359297830395  -0.000359297830395   0.037360631402691 1
force Se  -0.000359297830395  -0.000359297830395  -0.037360631403032 1
force Se  -0.000359297830395  -0.000359297830395   0.037360631402804 1
force Se  -0.000359297830395  -0.000359297830395  -0.037360631402919 1

# Energy components:
   A_diel =        0.0107260256866163
   Eewald =     6746.0942885937301980
       EH =     7750.8878674563893583
     Eloc =   -16076.7217145502272615
      Enl =      239.9547857414792134
      Exc =     -622.7866713073624396
 Exc_core =      418.7155146304000937
       KE =      319.9982982046903999
-------------------------------------
     Etot =    -1223.8469052052132611
       TS =        0.1002468339677728
-------------------------------------
        F =    -1223.9471520391809918

IonicMinimize: Iter:   1  F: -1223.947152039180992  |grad|_K:  5.075e-04  alpha:  1.000e+00  linmin: -1.000e+00  t[s]:   6528.51

#--- Lowdin population analysis ---
# oxidation-state Nb -0.567 -0.567 -0.567 -0.567 -0.567 -0.567 -0.567 -0.567 -0.567 -0.567 -0.567 -0.567 -0.567 -0.567 -0.567 -0.567
# magnetic-moments Nb -0.000 -0.000 -0.000 -0.000 -0.000 -0.000 -0.000 -0.000 -0.000 -0.000 -0.000 -0.000 -0.000 -0.000 -0.000 -0.000
# oxidation-state Se +0.325 +0.325 +0.325 +0.325 +0.325 +0.325 +0.325 +0.325 +0.325 +0.325 +0.325 +0.325 +0.325 +0.325 +0.325 +0.325 +0.325 +0.325 +0.325 +0.325 +0.325 +0.325 +0.325 +0.325 +0.325 +0.325 +0.325 +0.325 +0.325 +0.325 +0.325 +0.325
# magnetic-moments Se -0.000 -0.000 -0.000 -0.000 -0.000 -0.000 -0.000 -0.000 -0.000 -0.000 -0.000 -0.000 -0.000 -0.000 -0.000 -0.000 -0.000 -0.000 -0.000 -0.000 -0.000 -0.000 -0.000 -0.000 -0.000 -0.000 -0.000 -0.000 -0.000 -0.000 -0.000 -0.000

	Linear fluid (dielectric constant: 78.4, screening length: 5.74355 Bohr) occupying 0.749185 of unit cell:	Completed after 4 iterations at t[s]:   6562.14

-------- Electronic minimization -----------
	Linear fluid (dielectric constant: 78.4, screening length: 5.74355 Bohr) occupying 0.749185 of unit cell:	Completed after 0 iterations at t[s]:   6587.25
	FillingsUpdate:  mu: -0.193283399  nElectrons: 400.000000  magneticMoment: [ Abs: 0.00011  Tot: -0.00000 ]
ElecMinimize: Iter:   0  F: -1223.947129862247266  |grad|_K:  8.220e-07  alpha:  1.000e+00
	Linear fluid (dielectric constant: 78.4, screening length: 5.74355 Bohr) occupying 0.749165 of unit cell:	Completed after 10 iterations at t[s]:   6666.86
	Linear fluid (dielectric constant: 78.4, screening length: 5.74355 Bohr) occupying 0.749180 of unit cell:	Completed after 9 iterations at t[s]:   6702.70
	FillingsUpdate:  mu: -0.194808367  nElectrons: 400.000000  magneticMoment: [ Abs: 0.00007  Tot: -0.00000 ]
	SubspaceRotationAdjust: set factor to 0.719
ElecMinimize: Iter:   1  F: -1223.947193093041506  |grad|_K:  6.503e-07  alpha:  2.317e-01  linmin:  5.213e-05  t[s]:   6747.17
	Linear fluid (dielectric constant: 78.4, screening length: 5.74355 Bohr) occupying 0.749208 of unit cell:	Completed after 7 iterations at t[s]:   6779.26
	Linear fluid (dielectric constant: 78.4, screening length: 5.74355 Bohr) occupying 0.749233 of unit cell:	Completed after 8 iterations at t[s]:   6814.63
	FillingsUpdate:  mu: -0.194024424  nElectrons: 400.000000  magneticMoment: [ Abs: 0.00002  Tot: -0.00000 ]
	SubspaceRotationAdjust: set factor to 0.75
ElecMinimize: Iter:   2  F: -1223.947268490873284  |grad|_K:  1.135e-07  alpha:  4.366e-01  linmin:  4.790e-05  t[s]:   6858.71
	Linear fluid (dielectric constant: 78.4, screening length: 5.74355 Bohr) occupying 0.749236 of unit cell:	Completed after 2 iterations at t[s]:   6890.33
	Linear fluid (dielectric constant: 78.4, screening length: 5.74355 Bohr) occupying 0.749237 of unit cell:	Completed after 0 iterations at t[s]:   6923.16
	FillingsUpdate:  mu: -0.194002007  nElectrons: 400.000000  magneticMoment: [ Abs: 0.00002  Tot: +0.00000 ]
	SubspaceRotationAdjust: set factor to 0.86
ElecMinimize: Iter:   3  F: -1223.947271576635103  |grad|_K:  5.407e-08  alpha:  5.759e-01  linmin: -5.681e-04  t[s]:   6965.93
	Linear fluid (dielectric constant: 78.4, screening length: 5.74355 Bohr) occupying 0.749238 of unit cell:	Completed after 2 iterations at t[s]:   6997.04
	Linear fluid (dielectric constant: 78.4, screening length: 5.74355 Bohr) occupying 0.749238 of unit cell:	Completed after 0 iterations at t[s]:   7029.63
	FillingsUpdate:  mu: -0.193946583  nElectrons: 400.000000  magneticMoment: [ Abs: 0.00002  Tot: +0.00000 ]
	SubspaceRotationAdjust: set factor to 0.883
ElecMinimize: Iter:   4  F: -1223.947272597549727  |grad|_K:  4.160e-08  alpha:  7.441e-01  linmin: -4.776e-04  t[s]:   7071.84
	Linear fluid (dielectric constant: 78.4, screening length: 5.74355 Bohr) occupying 0.749235 of unit cell:	Completed after 3 iterations at t[s]:   7103.79
	Linear fluid (dielectric constant: 78.4, screening length: 5.74355 Bohr) occupying 0.749236 of unit cell:	Completed after 0 iterations at t[s]:   7136.14
	FillingsUpdate:  mu: -0.194036244  nElectrons: 400.000000  magneticMoment: [ Abs: 0.00001  Tot: +0.00000 ]
	SubspaceRotationAdjust: set factor to 0.605
ElecMinimize: Iter:   5  F: -1223.947273074677469  |grad|_K:  4.265e-08  alpha:  4.670e-01  linmin:  3.433e-04  t[s]:   7178.92
	Linear fluid (dielectric constant: 78.4, screening length: 5.74355 Bohr) occupying 0.749235 of unit cell:	Completed after 1 iterations at t[s]:   7210.01
	Linear fluid (dielectric constant: 78.4, screening length: 5.74355 Bohr) occupying 0.749236 of unit cell:	Completed after 0 iterations at t[s]:   7242.17
	FillingsUpdate:  mu: -0.193950566  nElectrons: 400.000000  magneticMoment: [ Abs: 0.00001  Tot: +0.00000 ]
	SubspaceRotationAdjust: set factor to 0.339
ElecMinimize: Iter:   6  F: -1223.947273143200164  |grad|_K:  3.281e-08  alpha:  1.877e-01  linmin:  1.135e-04  t[s]:   7284.89
	Linear fluid (dielectric constant: 78.4, screening length: 5.74355 Bohr) occupying 0.749235 of unit cell:	Completed after 2 iterations at t[s]:   7316.13
	Linear fluid (dielectric constant: 78.4, screening length: 5.74355 Bohr) occupying 0.749236 of unit cell:	Completed after 0 iterations at t[s]:   7348.50
ElecMinimize: 	Step increased F by 8.388270e-09, reducing alpha to 1.044991e-02.
	Linear fluid (dielectric constant: 78.4, screening length: 5.74355 Bohr) occupying 0.749236 of unit cell:	Completed after 0 iterations at t[s]:   7415.48
ElecMinimize: 	Step increased F by 4.480125e-08, reducing alpha to 1.044991e-03.
	Linear fluid (dielectric constant: 78.4, screening length: 5.74355 Bohr) occupying 0.749236 of unit cell:	Completed after 0 iterations at t[s]:   7482.94
ElecMinimize: 	Step increased F by 4.911999e-08, reducing alpha to 1.044991e-04.
ElecMinimize: 	Step failed to reduce F after 3 attempts. Quitting step.
ElecMinimize: 	Undoing step.
	Linear fluid (dielectric constant: 78.4, screening length: 5.74355 Bohr) occupying 0.749236 of unit cell:	Completed after 0 iterations at t[s]:   7550.26
ElecMinimize: 	Step failed: resetting search direction.
	FillingsUpdate:  mu: -0.193979282  nElectrons: 400.000000  magneticMoment: [ Abs: 0.00001  Tot: +0.00000 ]
	SubspaceRotationAdjust: set factor to 0.369
ElecMinimize: Iter:   7  F: -1223.947273094008779  |grad|_K:  1.941e-08  alpha:  1.045e-04
	Linear fluid (dielectric constant: 78.4, screening length: 5.74355 Bohr) occupying 0.749236 of unit cell:	Completed after 0 iterations at t[s]:   7623.93
ElecMinimize: 	Predicted alpha/alphaT>3.000000, increasing alphaT to 5.632147e-01.
	Linear fluid (dielectric constant: 78.4, screening length: 5.74355 Bohr) occupying 0.749236 of unit cell:	Completed after 0 iterations at t[s]:   7655.47
	Linear fluid (dielectric constant: 78.4, screening length: 5.74355 Bohr) occupying 0.749236 of unit cell:	Completed after 0 iterations at t[s]:   7687.33
	FillingsUpdate:  mu: -0.193980110  nElectrons: 400.000000  magneticMoment: [ Abs: 0.00001  Tot: -0.00000 ]
	SubspaceRotationAdjust: set factor to 0.398
ElecMinimize: Iter:   8  F: -1223.947273195464504  |grad|_K:  9.378e-09  alpha:  6.549e-01  linmin: -7.619e-07  t[s]:   7729.81
	Linear fluid (dielectric constant: 78.4, screening length: 5.74355 Bohr) occupying 0.749236 of unit cell:	Completed after 0 iterations at t[s]:   7760.61
	Linear fluid (dielectric constant: 78.4, screening length: 5.74355 Bohr) occupying 0.749236 of unit cell:	Completed after 0 iterations at t[s]:   7792.33
	FillingsUpdate:  mu: -0.193980194  nElectrons: 400.000000  magneticMoment: [ Abs: 0.00000  Tot: -0.00000 ]
	SubspaceRotationAdjust: set factor to 0.424
ElecMinimize: Iter:   9  F: -1223.947273224713626  |grad|_K:  8.203e-09  alpha:  8.132e-01  linmin:  9.460e-07  t[s]:   7835.49
	Linear fluid (dielectric constant: 78.4, screening length: 5.74355 Bohr) occupying 0.749236 of unit cell:	Completed after 0 iterations at t[s]:   7866.53
	Linear fluid (dielectric constant: 78.4, screening length: 5.74355 Bohr) occupying 0.749236 of unit cell:	Completed after 0 iterations at t[s]:   7898.60
	FillingsUpdate:  mu: -0.193980040  nElectrons: 400.000000  magneticMoment: [ Abs: 0.00000  Tot: -0.00000 ]
	SubspaceRotationAdjust: set factor to 0.46
ElecMinimize: Iter:  10  F: -1223.947273241959920  |grad|_K:  4.575e-09  alpha:  6.260e-01  linmin:  5.056e-07  t[s]:   7941.08
	Linear fluid (dielectric constant: 78.4, screening length: 5.74355 Bohr) occupying 0.749236 of unit cell:	Completed after 0 iterations at t[s]:   7971.38
	Linear fluid (dielectric constant: 78.4, screening length: 5.74355 Bohr) occupying 0.749236 of unit cell:	Completed after 0 iterations at t[s]:   8003.18
	FillingsUpdate:  mu: -0.193979933  nElectrons: 400.000000  magneticMoment: [ Abs: 0.00000  Tot: -0.00000 ]
	SubspaceRotationAdjust: set factor to 0.466
ElecMinimize: Iter:  11  F: -1223.947273250771332  |grad|_K:  3.607e-09  alpha:  1.006e+00  linmin: -1.383e-06  t[s]:   8045.73
	Linear fluid (dielectric constant: 78.4, screening length: 5.74355 Bohr) occupying 0.749237 of unit cell:	Completed after 0 iterations at t[s]:   8076.72
	Linear fluid (dielectric constant: 78.4, screening length: 5.74355 Bohr) occupying 0.749237 of unit cell:	Completed after 0 iterations at t[s]:   8108.36
	FillingsUpdate:  mu: -0.193979955  nElectrons: 400.000000  magneticMoment: [ Abs: 0.00000  Tot: -0.00000 ]
	SubspaceRotationAdjust: set factor to 0.465
ElecMinimize: Iter:  12  F: -1223.947273255699201  |grad|_K:  2.649e-09  alpha:  9.091e-01  linmin: -5.300e-07  t[s]:   8151.12
ElecMinimize: Converged (|Delta F|<1.000000e-08 for 2 iters).
Setting wave functions to eigenvectors of Hamiltonian

# Ionic positions in lattice coordinates:
ion Nb   0.083332881449262   0.083332929928429   0.500000008666667 1
ion Nb   0.333332881449262   0.083332929928429   0.500000008666667 1
ion Nb   0.583332881449262   0.083332929928429   0.500000008666667 1
ion Nb   0.833332881449262   0.083332929928429   0.500000008666667 1
ion Nb   0.083332881449262   0.333332929928429   0.500000008666667 1
ion Nb   0.333332881449262   0.333332929928429   0.500000008666667 1
ion Nb   0.583332881449262   0.333332929928429   0.500000008666667 1
ion Nb   0.833332881449262   0.333332929928429   0.500000008666667 1
ion Nb   0.083332881449262   0.583332929928429   0.500000008666667 1
ion Nb   0.333332881449262   0.583332929928429   0.500000008666667 1
ion Nb   0.583332881449262   0.583332929928429   0.500000008666667 1
ion Nb   0.833332881449262   0.583332929928429   0.500000008666667 1
ion Nb   0.083332881449262   0.833332929928429   0.500000008666667 1
ion Nb   0.333332881449262   0.833332929928429   0.500000008666667 1
ion Nb   0.583332881449262   0.833332929928429   0.500000008666667 1
ion Nb   0.833332881449262   0.833332929928429   0.500000008666667 1
ion Se   0.166668522056619   0.166668570535786   0.591889165167405 1
ion Se   0.166668522056619   0.166668570535786   0.408110852165929 1
ion Se   0.416668522056619   0.166668570535786   0.591889165167405 1
ion Se   0.416668522056619   0.166668570535786   0.408110852165929 1
ion Se   0.666668522056619   0.166668570535786   0.591889165167405 1
ion Se   0.666668522056619   0.166668570535786   0.408110852165929 1
ion Se   0.916668522056619   0.166668570535786   0.591889165167405 1
ion Se   0.916668522056619   0.166668570535786   0.408110852165929 1
ion Se   0.166668522056619   0.416668570535786   0.591889165167405 1
ion Se   0.166668522056619   0.416668570535786   0.408110852165929 1
ion Se   0.416668522056619   0.416668570535786   0.591889165167405 1
ion Se   0.416668522056619   0.416668570535786   0.408110852165929 1
ion Se   0.666668522056619   0.416668570535786   0.591889165167405 1
ion Se   0.666668522056619   0.416668570535786   0.408110852165929 1
ion Se   0.916668522056619   0.416668570535786   0.591889165167405 1
ion Se   0.916668522056619   0.416668570535786   0.408110852165929 1
ion Se   0.166668522056619   0.666668570535786   0.591889165167405 1
ion Se   0.166668522056619   0.666668570535786   0.408110852165929 1
ion Se   0.416668522056619   0.666668570535786   0.591889165167405 1
ion Se   0.416668522056619   0.666668570535786   0.408110852165929 1
ion Se   0.666668522056619   0.666668570535786   0.591889165167405 1
ion Se   0.666668522056619   0.666668570535786   0.408110852165929 1
ion Se   0.916668522056619   0.666668570535786   0.591889165167405 1
ion Se   0.916668522056619   0.666668570535786   0.408110852165929 1
ion Se   0.166668522056619   0.916668570535786   0.591889165167405 1
ion Se   0.166668522056619   0.916668570535786   0.408110852165929 1
ion Se   0.416668522056619   0.916668570535786   0.591889165167405 1
ion Se   0.416668522056619   0.916668570535786   0.408110852165929 1
ion Se   0.666668522056619   0.916668570535786   0.591889165167405 1
ion Se   0.666668522056619   0.916668570535786   0.408110852165929 1
ion Se   0.916668522056619   0.916668570535786   0.591889165167405 1
ion Se   0.916668522056619   0.916668570535786   0.408110852165929 1


# Forces in Lattice coordinates:
force Nb   0.000073028035263   0.000073028035263   0.000000000000000 1
force Nb   0.000073028035263   0.000073028035263   0.000000000000000 1
force Nb   0.000073028035263   0.000073028035263  -0.000000000000000 1
force Nb   0.000073028035263   0.000073028035263  -0.000000000000000 1
force Nb   0.000073028035263   0.000073028035263  -0.000000000000000 1
force Nb   0.000073028035263   0.000073028035263  -0.000000000000000 1
force Nb   0.000073028035263   0.000073028035263  -0.000000000000000 1
force Nb   0.000073028035263   0.000073028035263  -0.000000000000000 1
force Nb   0.000073028035263   0.000073028035263  -0.000000000000000 1
force Nb   0.000073028035263   0.000073028035263  -0.000000000000000 1
force Nb   0.000073028035263   0.000073028035263   0.000000000000000 1
force Nb   0.000073028035263   0.000073028035263   0.000000000000000 1
force Nb   0.000073028035263   0.000073028035263   0.000000000000000 1
force Nb   0.000073028035263   0.000073028035263  -0.000000000000000 1
force Nb   0.000073028035263   0.000073028035263   0.000000000000000 1
force Nb   0.000073028035263   0.000073028035263   0.000000000000000 1
force Se  -0.000037368449335  -0.000037368449335   0.008421080361676 1
force Se  -0.000037368449335  -0.000037368449335  -0.008421080361563 1
force Se  -0.000037368449335  -0.000037368449335   0.008421080361787 1
force Se  -0.000037368449335  -0.000037368449335  -0.008421080361448 1
force Se  -0.000037368449335  -0.000037368449335   0.008421080362015 1
force Se  -0.000037368449335  -0.000037368449335  -0.008421080361449 1
force Se  -0.000037368449335  -0.000037368449335   0.008421080361903 1
force Se  -0.000037368449335  -0.000037368449335  -0.008421080361563 1
force Se  -0.000037368449335  -0.000037368449335   0.008421080361903 1
force Se  -0.000037368449335  -0.000037368449335  -0.008421080361449 1
force Se  -0.000037368449335  -0.000037368449335   0.008421080361902 1
force Se  -0.000037368449335  -0.000037368449335  -0.008421080361449 1
force Se  -0.000037368449335  -0.000037368449335   0.008421080361789 1
force Se  -0.000037368449335  -0.000037368449335  -0.008421080361562 1
force Se  -0.000037368449335  -0.000037368449335   0.008421080361676 1
force Se  -0.000037368449335  -0.000037368449335  -0.008421080361448 1
force Se  -0.000037368449335  -0.000037368449335   0.008421080361789 1
force Se  -0.000037368449335  -0.000037368449335  -0.008421080361448 1
force Se  -0.000037368449335  -0.000037368449335   0.008421080361675 1
force Se  -0.000037368449335  -0.000037368449335  -0.008421080361448 1
force Se  -0.000037368449335  -0.000037368449335   0.008421080361561 1
force Se  -0.000037368449335  -0.000037368449335  -0.008421080361449 1
force Se  -0.000037368449335  -0.000037368449335   0.008421080361562 1
force Se  -0.000037368449335  -0.000037368449335  -0.008421080361448 1
force Se  -0.000037368449335  -0.000037368449335   0.008421080361560 1
force Se  -0.000037368449335  -0.000037368449335  -0.008421080361677 1
force Se  -0.000037368449335  -0.000037368449335   0.008421080361674 1
force Se  -0.000037368449335  -0.000037368449335  -0.008421080361677 1
force Se  -0.000037368449335  -0.000037368449335   0.008421080361788 1
force Se  -0.000037368449335  -0.000037368449335  -0.008421080361563 1
force Se  -0.000037368449335  -0.000037368449335   0.008421080361675 1
force Se  -0.000037368449335  -0.000037368449335  -0.008421080361676 1

# Energy components:
   A_diel =        0.0107433379651046
   Eewald =     6743.2116393709920885
       EH =     7748.0501570382157297
     Eloc =   -16070.9367283475803561
      Enl =      239.9302409262694482
      Exc =     -622.7543696156965325
 Exc_core =      418.7155120047609103
       KE =      319.9259611766573244
-------------------------------------
     Etot =    -1223.8468441084160077
       TS =        0.1004291472831007
-------------------------------------
        F =    -1223.9472732556992014

IonicMinimize: Iter:   2  F: -1223.947273255699201  |grad|_K:  1.144e-04  alpha:  1.000e+00  linmin: -1.000e+00  t[s]:   8172.47

#--- Lowdin population analysis ---
# oxidation-state Nb -0.566 -0.566 -0.566 -0.566 -0.566 -0.566 -0.566 -0.566 -0.566 -0.566 -0.566 -0.566 -0.566 -0.566 -0.566 -0.566
# magnetic-moments Nb -0.000 -0.000 -0.000 -0.000 -0.000 -0.000 -0.000 -0.000 -0.000 -0.000 -0.000 -0.000 -0.000 -0.000 -0.000 -0.000
# oxidation-state Se +0.324 +0.324 +0.324 +0.324 +0.324 +0.324 +0.324 +0.324 +0.324 +0.324 +0.324 +0.324 +0.324 +0.324 +0.324 +0.324 +0.324 +0.324 +0.324 +0.324 +0.324 +0.324 +0.324 +0.324 +0.324 +0.324 +0.324 +0.324 +0.324 +0.324 +0.324 +0.324
# magnetic-moments Se -0.000 -0.000 -0.000 -0.000 -0.000 -0.000 -0.000 -0.000 -0.000 -0.000 -0.000 -0.000 -0.000 -0.000 -0.000 -0.000 -0.000 -0.000 -0.000 -0.000 -0.000 -0.000 -0.000 -0.000 -0.000 -0.000 -0.000 -0.000 -0.000 -0.000 -0.000 -0.000

	Linear fluid (dielectric constant: 78.4, screening length: 5.74355 Bohr) occupying 0.749179 of unit cell:	Completed after 5 iterations at t[s]:   8206.00

-------- Electronic minimization -----------
	Linear fluid (dielectric constant: 78.4, screening length: 5.74355 Bohr) occupying 0.749179 of unit cell:	Completed after 0 iterations at t[s]:   8230.96
	FillingsUpdate:  mu: -0.193781582  nElectrons: 400.000000  magneticMoment: [ Abs: 0.00004  Tot: -0.00000 ]
ElecMinimize: Iter:   0  F: -1223.947270045391406  |grad|_K:  1.510e-07  alpha:  1.000e+00
	Linear fluid (dielectric constant: 78.4, screening length: 5.74355 Bohr) occupying 0.749178 of unit cell:	Completed after 6 iterations at t[s]:   8310.12
	Linear fluid (dielectric constant: 78.4, screening length: 5.74355 Bohr) occupying 0.749178 of unit cell:	Completed after 3 iterations at t[s]:   8344.20
	FillingsUpdate:  mu: -0.194221463  nElectrons: 400.000000  magneticMoment: [ Abs: 0.00003  Tot: +0.00000 ]
	SubspaceRotationAdjust: set factor to 0.305
ElecMinimize: Iter:   1  F: -1223.947276010347423  |grad|_K:  1.244e-07  alpha:  6.363e-01  linmin:  1.477e-04  t[s]:   8388.04
	Linear fluid (dielectric constant: 78.4, screening length: 5.74355 Bohr) occupying 0.749188 of unit cell:	Completed after 2 iterations at t[s]:   8419.67
	Linear fluid (dielectric constant: 78.4, screening length: 5.74355 Bohr) occupying 0.749189 of unit cell:	Completed after 0 iterations at t[s]:   8452.29
	FillingsUpdate:  mu: -0.194044653  nElectrons: 400.000000  magneticMoment: [ Abs: 0.00002  Tot: +0.00000 ]
	SubspaceRotationAdjust: set factor to 0.516
ElecMinimize: Iter:   2  F: -1223.947280578484879  |grad|_K:  6.198e-08  alpha:  7.207e-01  linmin: -2.707e-04  t[s]:   8494.80
	Linear fluid (dielectric constant: 78.4, screening length: 5.74355 Bohr) occupying 0.749194 of unit cell:	Completed after 2 iterations at t[s]:   8525.97
	Linear fluid (dielectric constant: 78.4, screening length: 5.74355 Bohr) occupying 0.749193 of unit cell:	Completed after 0 iterations at t[s]:   8558.46
	FillingsUpdate:  mu: -0.193933019  nElectrons: 400.000000  magneticMoment: [ Abs: 0.00001  Tot: +0.00000 ]
	SubspaceRotationAdjust: set factor to 0.521
ElecMinimize: Iter:   3  F: -1223.947281450309447  |grad|_K:  3.977e-08  alpha:  5.403e-01  linmin:  1.438e-04  t[s]:   8601.14
	Linear fluid (dielectric constant: 78.4, screening length: 5.74355 Bohr) occupying 0.749194 of unit cell:	Completed after 3 iterations at t[s]:   8633.10
	Linear fluid (dielectric constant: 78.4, screening length: 5.74355 Bohr) occupying 0.749194 of unit cell:	Completed after 0 iterations at t[s]:   8666.02
	FillingsUpdate:  mu: -0.193990642  nElectrons: 400.000000  magneticMoment: [ Abs: 0.00001  Tot: +0.00000 ]
	SubspaceRotationAdjust: set factor to 0.329
ElecMinimize: Iter:   4  F: -1223.947281637759261  |grad|_K:  2.250e-08  alpha:  3.645e-01  linmin: -4.225e-05  t[s]:   8708.35
	Linear fluid (dielectric constant: 78.4, screening length: 5.74355 Bohr) occupying 0.749194 of unit cell:	Completed after 0 iterations at t[s]:   8739.33
	Linear fluid (dielectric constant: 78.4, screening length: 5.74355 Bohr) occupying 0.749195 of unit cell:	Completed after 2 iterations at t[s]:   8771.97
ElecMinimize: 	Step increased F by 3.008017e-08, reducing alpha to 7.087154e-02.
	Linear fluid (dielectric constant: 78.4, screening length: 5.74355 Bohr) occupying 0.749194 of unit cell:	Completed after 0 iterations at t[s]:   8840.76
	FillingsUpdate:  mu: -0.193926332  nElectrons: 400.000000  magneticMoment: [ Abs: 0.00001  Tot: +0.00000 ]
	SubspaceRotationAdjust: set factor to 0.202
ElecMinimize: Iter:   5  F: -1223.947281701539168  |grad|_K:  1.920e-08  alpha:  7.087e-02  linmin: -5.229e-05  t[s]:   8883.25
	Linear fluid (dielectric constant: 78.4, screening length: 5.74355 Bohr) occupying 0.749194 of unit cell:	Completed after 0 iterations at t[s]:   8914.33
ElecMinimize: 	Predicted alpha/alphaT>3.000000, increasing alphaT to 2.126146e-01.
	Linear fluid (dielectric constant: 78.4, screening length: 5.74355 Bohr) occupying 0.749194 of unit cell:	Completed after 0 iterations at t[s]:   8945.81
	Linear fluid (dielectric constant: 78.4, screening length: 5.74355 Bohr) occupying 0.749194 of unit cell:	Completed after 2 iterations at t[s]:   8977.85
ElecMinimize: 	Step increased F by 2.423917e-08, reducing alpha to 5.548940e-02.
	Linear fluid (dielectric constant: 78.4, screening length: 5.74355 Bohr) occupying 0.749194 of unit cell:	Completed after 0 iterations at t[s]:   9045.39
ElecMinimize: 	Step increased F by 4.659864e-08, reducing alpha to 5.548940e-03.
	Linear fluid (dielectric constant: 78.4, screening length: 5.74355 Bohr) occupying 0.749194 of unit cell:	Completed after 0 iterations at t[s]:   9112.26
ElecMinimize: 	Step increased F by 5.710808e-08, reducing alpha to 5.548940e-04.
ElecMinimize: 	Step failed to reduce F after 3 attempts. Quitting step.
ElecMinimize: 	Undoing step.
	Linear fluid (dielectric constant: 78.4, screening length: 5.74355 Bohr) occupying 0.749194 of unit cell:	Completed after 0 iterations at t[s]:   9179.77
ElecMinimize: 	Step failed: resetting search direction.
	FillingsUpdate:  mu: -0.193964492  nElectrons: 400.000000  magneticMoment: [ Abs: 0.00001  Tot: +0.00000 ]
	SubspaceRotationAdjust: set factor to 0.15
ElecMinimize: Iter:   6  F: -1223.947281644290342  |grad|_K:  1.265e-08  alpha:  5.549e-04
	Linear fluid (dielectric constant: 78.4, screening length: 5.74355 Bohr) occupying 0.749194 of unit cell:	Completed after 0 iterations at t[s]:   9252.75
ElecMinimize: 	Predicted alpha/alphaT>3.000000, increasing alphaT to 2.126146e-01.
	Linear fluid (dielectric constant: 78.4, screening length: 5.74355 Bohr) occupying 0.749194 of unit cell:	Completed after 0 iterations at t[s]:   9284.29
ElecMinimize: 	Predicted alpha/alphaT>3.000000, increasing alphaT to 6.378438e-01.
	Linear fluid (dielectric constant: 78.4, screening length: 5.74355 Bohr) occupying 0.749194 of unit cell:	Completed after 0 iterations at t[s]:   9316.22
	Linear fluid (dielectric constant: 78.4, screening length: 5.74355 Bohr) occupying 0.749194 of unit cell:	Completed after 0 iterations at t[s]:   9348.08
	FillingsUpdate:  mu: -0.193964501  nElectrons: 400.000000  magneticMoment: [ Abs: 0.00001  Tot: +0.00000 ]
	SubspaceRotationAdjust: set factor to 0.209
ElecMinimize: Iter:   7  F: -1223.947281706114381  |grad|_K:  8.127e-09  alpha:  9.416e-01  linmin:  1.912e-06  t[s]:   9390.50
	Linear fluid (dielectric constant: 78.4, screening length: 5.74355 Bohr) occupying 0.749194 of unit cell:	Completed after 0 iterations at t[s]:   9421.15
	Linear fluid (dielectric constant: 78.4, screening length: 5.74355 Bohr) occupying 0.749194 of unit cell:	Completed after 1 iterations at t[s]:   9454.54
ElecMinimize: 	Step increased F by 5.825154e-08, reducing alpha to 1.146264e-01.
	Linear fluid (dielectric constant: 78.4, screening length: 5.74355 Bohr) occupying 0.749194 of unit cell:	Completed after 0 iterations at t[s]:   9521.63
ElecMinimize: 	Step increased F by 3.777859e-08, reducing alpha to 1.146264e-02.
	Linear fluid (dielectric constant: 78.4, screening length: 5.74355 Bohr) occupying 0.749194 of unit cell:	Completed after 0 iterations at t[s]:   9589.09
ElecMinimize: 	Step increased F by 3.844889e-08, reducing alpha to 1.146264e-03.
ElecMinimize: 	Step failed to reduce F after 3 attempts. Quitting step.
ElecMinimize: 	Undoing step.
	Linear fluid (dielectric constant: 78.4, screening length: 5.74355 Bohr) occupying 0.749194 of unit cell:	Completed after 0 iterations at t[s]:   9656.94
ElecMinimize: 	Step failed: resetting search direction.
	FillingsUpdate:  mu: -0.193937899  nElectrons: 400.000000  magneticMoment: [ Abs: 0.00001  Tot: +0.00000 ]
	SubspaceRotationAdjust: set factor to 0.195
ElecMinimize: Iter:   8  F: -1223.947281667658217  |grad|_K:  1.382e-08  alpha:  1.146e-03
	Linear fluid (dielectric constant: 78.4, screening length: 5.74355 Bohr) occupying 0.749193 of unit cell:	Completed after 1 iterations at t[s]:   9730.26
	Linear fluid (dielectric constant: 78.4, screening length: 5.74355 Bohr) occupying 0.749194 of unit cell:	Completed after 0 iterations at t[s]:   9762.59
	FillingsUpdate:  mu: -0.193942140  nElectrons: 400.000000  magneticMoment: [ Abs: 0.00001  Tot: +0.00000 ]
	SubspaceRotationAdjust: set factor to 0.321
ElecMinimize: Iter:   9  F: -1223.947281699318182  |grad|_K:  5.111e-09  alpha:  5.322e-01  linmin:  1.552e-05  t[s]:   9805.28
	Linear fluid (dielectric constant: 78.4, screening length: 5.74355 Bohr) occupying 0.749193 of unit cell:	Completed after 0 iterations at t[s]:   9836.07
	Linear fluid (dielectric constant: 78.4, screening length: 5.74355 Bohr) occupying 0.749193 of unit cell:	Completed after 0 iterations at t[s]:   9868.14
	FillingsUpdate:  mu: -0.193941500  nElectrons: 400.000000  magneticMoment: [ Abs: 0.00001  Tot: +0.00000 ]
	SubspaceRotationAdjust: set factor to 0.385
ElecMinimize: Iter:  10  F: -1223.947281715125200  |grad|_K:  5.505e-09  alpha:  1.503e+00  linmin:  7.611e-07  t[s]:   9911.02
	Linear fluid (dielectric constant: 78.4, screening length: 5.74355 Bohr) occupying 0.749192 of unit cell:	Completed after 2 iterations at t[s]:   9940.90
	Linear fluid (dielectric constant: 78.4, screening length: 5.74355 Bohr) occupying 0.749193 of unit cell:	Completed after 0 iterations at t[s]:   9971.39
ElecMinimize: 	Step increased F by 1.250578e-08, reducing alpha to 1.986543e-02.
	Linear fluid (dielectric constant: 78.4, screening length: 5.74355 Bohr) occupying 0.749193 of unit cell:	Completed after 0 iterations at t[s]:  10034.83
ElecMinimize: 	Step increased F by 3.743025e-09, reducing alpha to 1.986543e-03.
	Linear fluid (dielectric constant: 78.4, screening length: 5.74355 Bohr) occupying 0.749193 of unit cell:	Completed after 0 iterations at t[s]:  10098.20
ElecMinimize: 	Step increased F by 2.981551e-09, reducing alpha to 1.986543e-04.
ElecMinimize: 	Step failed to reduce F after 3 attempts. Quitting step.
ElecMinimize: 	Undoing step.
	Linear fluid (dielectric constant: 78.4, screening length: 5.74355 Bohr) occupying 0.749193 of unit cell:	Completed after 0 iterations at t[s]:  10161.46
ElecMinimize: 	Step failed: resetting search direction.
	FillingsUpdate:  mu: -0.194001542  nElectrons: 400.000000  magneticMoment: [ Abs: 0.00001  Tot: +0.00000 ]
	SubspaceRotationAdjust: set factor to 0.265
ElecMinimize: Iter:  11  F: -1223.947281712143649  |grad|_K:  2.142e-08  alpha:  1.987e-04
	Linear fluid (dielectric constant: 78.4, screening length: 5.74355 Bohr) occupying 0.749194 of unit cell:	Completed after 2 iterations at t[s]:  10231.27
	Linear fluid (dielectric constant: 78.4, screening length: 5.74355 Bohr) occupying 0.749193 of unit cell:	Completed after 3 iterations at t[s]:  10262.19
ElecMinimize: 	Step increased F by 1.420131e-08, reducing alpha to 2.927194e-02.
	Linear fluid (dielectric constant: 78.4, screening length: 5.74355 Bohr) occupying 0.749193 of unit cell:	Completed after 0 iterations at t[s]:  10326.46
	FillingsUpdate:  mu: -0.193924920  nElectrons: 400.000000  magneticMoment: [ Abs: 0.00001  Tot: +0.00000 ]
	SubspaceRotationAdjust: set factor to 0.118
ElecMinimize: Iter:  12  F: -1223.947281733236196  |grad|_K:  9.967e-09  alpha:  2.927e-02  linmin:  1.586e-04  t[s]:  10366.59
	Linear fluid (dielectric constant: 78.4, screening length: 5.74355 Bohr) occupying 0.749193 of unit cell:	Completed after 0 iterations at t[s]:  10396.03
ElecMinimize: 	Wrong curvature in test step, increasing alphaT to 8.781582e-02.
	Linear fluid (dielectric constant: 78.4, screening length: 5.74355 Bohr) occupying 0.749193 of unit cell:	Completed after 0 iterations at t[s]:  10418.36
	FillingsUpdate:  mu: -0.193924930  nElectrons: 400.000000  magneticMoment: [ Abs: 0.00001  Tot: +0.00000 ]
	SubspaceRotationAdjust: set factor to 0.19
ElecMinimize: Iter:  13  F: -1223.947281734925127  |grad|_K:  8.193e-09  alpha: -7.966e-01  linmin: -8.716e-05  t[s]:  10458.52
	Linear fluid (dielectric constant: 78.4, screening length: 5.74355 Bohr) occupying 0.749192 of unit cell:	Completed after 2 iterations at t[s]:  10488.52
	Linear fluid (dielectric constant: 78.4, screening length: 5.74355 Bohr) occupying 0.749193 of unit cell:	Completed after 0 iterations at t[s]:  10518.71
ElecMinimize: 	Step increased F by 1.699391e-09, reducing alpha to 1.609003e-02.
	Linear fluid (dielectric constant: 78.4, screening length: 5.74355 Bohr) occupying 0.749193 of unit cell:	Completed after 0 iterations at t[s]:  10581.88
	FillingsUpdate:  mu: -0.193991257  nElectrons: 400.000000  magneticMoment: [ Abs: 0.00001  Tot: +0.00000 ]
	SubspaceRotationAdjust: set factor to 0.167
ElecMinimize: Iter:  14  F: -1223.947281750007051  |grad|_K:  1.772e-08  alpha:  1.609e-02  linmin:  1.055e-04  t[s]:  10621.94
ElecMinimize: 	Bad step direction: g.d > 0.
ElecMinimize: 	Undoing step.
	Linear fluid (dielectric constant: 78.4, screening length: 5.74355 Bohr) occupying 0.749193 of unit cell:	Completed after 0 iterations at t[s]:  10651.65
ElecMinimize: 	Step failed: resetting search direction.
	FillingsUpdate:  mu: -0.193991257  nElectrons: 400.000000  magneticMoment: [ Abs: 0.00001  Tot: +0.00000 ]
	SubspaceRotationAdjust: set factor to 0.175
ElecMinimize: Iter:  15  F: -1223.947281750014099  |grad|_K:  1.717e-08  alpha:  0.000e+00
	Linear fluid (dielectric constant: 78.4, screening length: 5.74355 Bohr) occupying 0.749193 of unit cell:	Completed after 0 iterations at t[s]:  10720.79
ElecMinimize: 	Predicted alpha/alphaT>3.000000, increasing alphaT to 4.827008e-02.
	Linear fluid (dielectric constant: 78.4, screening length: 5.74355 Bohr) occupying 0.749193 of unit cell:	Completed after 0 iterations at t[s]:  10750.30
ElecMinimize: 	Predicted alpha/alphaT>3.000000, increasing alphaT to 1.448102e-01.
	Linear fluid (dielectric constant: 78.4, screening length: 5.74355 Bohr) occupying 0.749193 of unit cell:	Completed after 0 iterations at t[s]:  10779.44
ElecMinimize: 	Predicted alpha/alphaT>3.000000, increasing alphaT to 4.344307e-01.
	Linear fluid (dielectric constant: 78.4, screening length: 5.74355 Bohr) occupying 0.749193 of unit cell:	Completed after 2 iterations at t[s]:  10809.53
ElecMinimize: 	Step increased F by 7.414237e-07, reducing alpha to 1.819982e-01.
	Linear fluid (dielectric constant: 78.4, screening length: 5.74355 Bohr) occupying 0.749193 of unit cell:	Completed after 3 iterations at t[s]:  10874.08
ElecMinimize: 	Step increased F by 5.059974e-08, reducing alpha to 1.819982e-02.
	Linear fluid (dielectric constant: 78.4, screening length: 5.74355 Bohr) occupying 0.749193 of unit cell:	Completed after 0 iterations at t[s]:  10938.40
ElecMinimize: 	Step increased F by 4.639310e-08, reducing alpha to 1.819982e-03.
ElecMinimize: 	Step failed to reduce F after 3 attempts. Quitting step.
ElecMinimize: 	Undoing step.
	Linear fluid (dielectric constant: 78.4, screening length: 5.74355 Bohr) occupying 0.749193 of unit cell:	Completed after 0 iterations at t[s]:  11001.83
ElecMinimize: 	Step failed along negative gradient direction.
ElecMinimize: Probably at roundoff error limit. (Stopping)
Setting wave functions to eigenvectors of Hamiltonian

# Ionic positions in lattice coordinates:
ion Nb   0.083333078088662   0.083333126567828   0.500000008666667 1
ion Nb   0.333333078088662   0.083333126567828   0.500000008666667 1
ion Nb   0.583333078088662   0.083333126567828   0.500000008666667 1
ion Nb   0.833333078088662   0.083333126567828   0.500000008666667 1
ion Nb   0.083333078088662   0.333333126567828   0.500000008666667 1
ion Nb   0.333333078088662   0.333333126567828   0.500000008666667 1
ion Nb   0.583333078088662   0.333333126567828   0.500000008666667 1
ion Nb   0.833333078088662   0.333333126567828   0.500000008666667 1
ion Nb   0.083333078088662   0.583333126567828   0.500000008666667 1
ion Nb   0.333333078088662   0.583333126567828   0.500000008666667 1
ion Nb   0.583333078088662   0.583333126567828   0.500000008666667 1
ion Nb   0.833333078088662   0.583333126567828   0.500000008666667 1
ion Nb   0.083333078088662   0.833333126567828   0.500000008666667 1
ion Nb   0.333333078088662   0.833333126567828   0.500000008666667 1
ion Nb   0.583333078088662   0.833333126567828   0.500000008666667 1
ion Nb   0.833333078088662   0.833333126567828   0.500000008666667 1
ion Se   0.166668423736919   0.166668472216086   0.591935938087193 1
ion Se   0.166668423736919   0.166668472216086   0.408064079246140 1
ion Se   0.416668423736919   0.166668472216086   0.591935938087193 1
ion Se   0.416668423736919   0.166668472216086   0.408064079246140 1
ion Se   0.666668423736919   0.166668472216086   0.591935938087193 1
ion Se   0.666668423736919   0.166668472216086   0.408064079246140 1
ion Se   0.916668423736919   0.166668472216086   0.591935938087193 1
ion Se   0.916668423736919   0.166668472216086   0.408064079246140 1
ion Se   0.166668423736919   0.416668472216086   0.591935938087193 1
ion Se   0.166668423736919   0.416668472216086   0.408064079246140 1
ion Se   0.416668423736919   0.416668472216086   0.591935938087193 1
ion Se   0.416668423736919   0.416668472216086   0.408064079246140 1
ion Se   0.666668423736919   0.416668472216086   0.591935938087193 1
ion Se   0.666668423736919   0.416668472216086   0.408064079246140 1
ion Se   0.916668423736919   0.416668472216086   0.591935938087193 1
ion Se   0.916668423736919   0.416668472216086   0.408064079246140 1
ion Se   0.166668423736919   0.666668472216086   0.591935938087193 1
ion Se   0.166668423736919   0.666668472216086   0.408064079246140 1
ion Se   0.416668423736919   0.666668472216086   0.591935938087193 1
ion Se   0.416668423736919   0.666668472216086   0.408064079246140 1
ion Se   0.666668423736919   0.666668472216086   0.591935938087193 1
ion Se   0.666668423736919   0.666668472216086   0.408064079246140 1
ion Se   0.916668423736919   0.666668472216086   0.591935938087193 1
ion Se   0.916668423736919   0.666668472216086   0.408064079246140 1
ion Se   0.166668423736919   0.916668472216086   0.591935938087193 1
ion Se   0.166668423736919   0.916668472216086   0.408064079246140 1
ion Se   0.416668423736919   0.916668472216086   0.591935938087193 1
ion Se   0.416668423736919   0.916668472216086   0.408064079246140 1
ion Se   0.666668423736919   0.916668472216086   0.591935938087193 1
ion Se   0.666668423736919   0.916668472216086   0.408064079246140 1
ion Se   0.916668423736919   0.916668472216086   0.591935938087193 1
ion Se   0.916668423736919   0.916668472216086   0.408064079246140 1


# Forces in Lattice coordinates:
force Nb   0.000169104582846   0.000169104582846  -0.000000000000000 1
force Nb   0.000169104582846   0.000169104582846   0.000000000000000 1
force Nb   0.000169104582846   0.000169104582846  -0.000000000000000 1
force Nb   0.000169104582846   0.000169104582846  -0.000000000000000 1
force Nb   0.000169104582846   0.000169104582846   0.000000000000000 1
force Nb   0.000169104582846   0.000169104582846   0.000000000000000 1
force Nb   0.000169104582846   0.000169104582846  -0.000000000000000 1
force Nb   0.000169104582846   0.000169104582846  -0.000000000000000 1
force Nb   0.000169104582846   0.000169104582846   0.000000000000000 1
force Nb   0.000169104582846   0.000169104582846  -0.000000000000000 1
force Nb   0.000169104582846   0.000169104582846  -0.000000000000000 1
force Nb   0.000169104582846   0.000169104582846   0.000000000000000 1
force Nb   0.000169104582846   0.000169104582846  -0.000000000000000 1
force Nb   0.000169104582846   0.000169104582846   0.000000000000000 1
force Nb   0.000169104582846   0.000169104582846   0.000000000000000 1
force Nb   0.000169104582846   0.000169104582846  -0.000000000000000 1
force Se  -0.000113635627846  -0.000113635627846   0.001512465843280 1
force Se  -0.000113635627846  -0.000113635627846  -0.001512465843279 1
force Se  -0.000113635627846  -0.000113635627846   0.001512465843393 1
force Se  -0.000113635627846  -0.000113635627846  -0.001512465843279 1
force Se  -0.000113635627846  -0.000113635627846   0.001512465843279 1
force Se  -0.000113635627846  -0.000113635627846  -0.001512465843279 1
force Se  -0.000113635627846  -0.000113635627846   0.001512465843279 1
force Se  -0.000113635627846  -0.000113635627846  -0.001512465843392 1
force Se  -0.000113635627846  -0.000113635627846   0.001512465843394 1
force Se  -0.000113635627846  -0.000113635627846  -0.001512465843279 1
force Se  -0.000113635627846  -0.000113635627846   0.001512465843392 1
force Se  -0.000113635627846  -0.000113635627846  -0.001512465843279 1
force Se  -0.000113635627846  -0.000113635627846   0.001512465843506 1
force Se  -0.000113635627846  -0.000113635627846  -0.001512465843392 1
force Se  -0.000113635627846  -0.000113635627846   0.001512465843393 1
force Se  -0.000113635627846  -0.000113635627846  -0.001512465843280 1
force Se  -0.000113635627846  -0.000113635627846   0.001512465843507 1
force Se  -0.000113635627846  -0.000113635627846  -0.001512465843052 1
force Se  -0.000113635627846  -0.000113635627846   0.001512465843394 1
force Se  -0.000113635627846  -0.000113635627846  -0.001512465843279 1
force Se  -0.000113635627846  -0.000113635627846   0.001512465843507 1
force Se  -0.000113635627846  -0.000113635627846  -0.001512465843279 1
force Se  -0.000113635627846  -0.000113635627846   0.001512465843507 1
force Se  -0.000113635627846  -0.000113635627846  -0.001512465843279 1
force Se  -0.000113635627846  -0.000113635627846   0.001512465843396 1
force Se  -0.000113635627846  -0.000113635627846  -0.001512465842938 1
force Se  -0.000113635627846  -0.000113635627846   0.001512465843508 1
force Se  -0.000113635627846  -0.000113635627846  -0.001512465843051 1
force Se  -0.000113635627846  -0.000113635627846   0.001512465843621 1
force Se  -0.000113635627846  -0.000113635627846  -0.001512465843051 1
force Se  -0.000113635627846  -0.000113635627846   0.001512465843508 1
force Se  -0.000113635627846  -0.000113635627846  -0.001512465843167 1

# Energy components:
   A_diel =        0.0107486755589670
   Eewald =     6742.3727166291655521
       EH =     7747.2264562566460881
     Eloc =   -16069.2583930425898870
      Enl =      239.9258511859425766
      Exc =     -622.7454623525145507
 Exc_core =      418.7155112777778641
       KE =      319.9057723545579393
-------------------------------------
     Etot =    -1223.8467990154558720
       TS =        0.1004826881954497
-------------------------------------
        F =    -1223.9472817036512424

IonicMinimize: Iter:   3  F: -1223.947281703651242  |grad|_K:  2.082e-05  alpha:  1.000e+00  linmin: -9.870e-01  t[s]:  11061.09
IonicMinimize: Converged (|grad|_K<1.000000e-04).

#--- Lowdin population analysis ---
# oxidation-state Nb -0.565 -0.565 -0.565 -0.565 -0.565 -0.565 -0.565 -0.565 -0.565 -0.565 -0.565 -0.565 -0.565 -0.565 -0.565 -0.565
# magnetic-moments Nb +0.000 +0.000 +0.000 +0.000 +0.000 +0.000 +0.000 +0.000 +0.000 +0.000 +0.000 +0.000 +0.000 +0.000 +0.000 +0.000
# oxidation-state Se +0.324 +0.324 +0.324 +0.324 +0.324 +0.324 +0.324 +0.324 +0.324 +0.324 +0.324 +0.324 +0.324 +0.324 +0.324 +0.324 +0.324 +0.324 +0.324 +0.324 +0.324 +0.324 +0.324 +0.324 +0.324 +0.324 +0.324 +0.324 +0.324 +0.324 +0.324 +0.324
# magnetic-moments Se -0.000 -0.000 -0.000 -0.000 -0.000 -0.000 -0.000 -0.000 -0.000 -0.000 -0.000 -0.000 -0.000 -0.000 -0.000 -0.000 -0.000 -0.000 -0.000 -0.000 -0.000 -0.000 -0.000 -0.000 -0.000 -0.000 -0.000 -0.000 -0.000 -0.000 -0.000 -0.000


Dumping 'NbTe2.fillings' ... done
Dumping 'NbTe2.wfns' ... done
Dumping 'NbTe2.fluidState' ... done
Dumping 'NbTe2.ionpos' ... done
Dumping 'NbTe2.eigenvals' ... done
End date and time: Thu Feb 11 09:25:03 2021  (Duration: 0-3:04:32.05)
Done!
