
*************** JDFTx 1.5.0  ***************

Start date and time: Thu Apr 15 11:10:28 2021
Executable jdftx_gpu with command-line: -i Charged.in -o Charged.out
Running on hosts (process indices):  amax (0-6)
Divided in process groups (process indices):  0 (0)  1 (1)  2 (2)  3 (3)  4 (4)  5 (5)  6 (6)
gpuInit: Found compatible cuda device 0 'Tesla K80'
gpuInit: Found compatible cuda device 1 'Tesla K80'
gpuInit: Found compatible cuda device 2 'Tesla K80'
gpuInit: Found compatible cuda device 3 'Tesla K80'
gpuInit: Found compatible cuda device 4 'Tesla K80'
gpuInit: Found compatible cuda device 5 'Tesla K80'
gpuInit: Found compatible cuda device 6 'Tesla K80'
gpuInit: Selected device 0
Resource initialization completed at t[s]:      3.60
Run totals: 7 processes, 24 threads, 7 GPUs


Input parsed successfully to the following command list (including defaults):

basis kpoint-dependent
cache-projectors no
coords-type Lattice
core-overlap-check none
coulomb-interaction Slab 001
coulomb-truncation-embed 0.5 0.5 0.5
davidson-band-ratio 1.1
dump End State
dump-name NbTe2.$VAR
elec-cutoff 20
elec-eigen-algo Davidson
elec-ex-corr gga-PBE
elec-initial-charge 1.000000
elec-smearing Gauss 0.0073499
electronic-minimize  \
	dirUpdateScheme      FletcherReeves \
	linminMethod         DirUpdateRecommended \
	nIterations          200 \
	history              15 \
	knormThreshold       0 \
	energyDiffThreshold  1e-08 \
	nEnergyDiff          2 \
	alphaTstart          1 \
	alphaTmin            1e-10 \
	updateTestStepSize   yes \
	alphaTreduceFactor   0.1 \
	alphaTincreaseFactor 3 \
	nAlphaAdjustMax      3 \
	wolfeEnergy          0.0001 \
	wolfeGradient        0.9 \
	fdTest               no
exchange-regularization WignerSeitzTruncated
fluid LinearPCM 298.000000 1.013250
fluid-anion F- 1 MeanFieldLJ \
	epsBulk 1 \
	pMol 0 \
	epsInf 1 \
	Pvap 0 \
	sigmaBulk 0 \
	Rvdw 2.24877 \
	Res 0 \
	tauNuc 343133
fluid-cation Na+ 1 MeanFieldLJ \
	epsBulk 1 \
	pMol 0 \
	epsInf 1 \
	Pvap 0 \
	sigmaBulk 0 \
	Rvdw 2.19208 \
	Res 0 \
	tauNuc 343133
fluid-ex-corr lda-TF lda-PZ
fluid-gummel-loop 10 1.000000e-05
fluid-minimize  \
	dirUpdateScheme      PolakRibiere \
	linminMethod         DirUpdateRecommended \
	nIterations          400 \
	history              15 \
	knormThreshold       1e-11 \
	energyDiffThreshold  0 \
	nEnergyDiff          2 \
	alphaTstart          1 \
	alphaTmin            1e-10 \
	updateTestStepSize   yes \
	alphaTreduceFactor   0.1 \
	alphaTincreaseFactor 3 \
	nAlphaAdjustMax      6 \
	wolfeEnergy          0.0001 \
	wolfeGradient        0.9 \
	fdTest               no
fluid-solvent H2O 55.338 ScalarEOS \
	epsBulk 78.4 \
	pMol 0.92466 \
	epsInf 1.77 \
	Pvap 1.06736e-10 \
	sigmaBulk 4.62e-05 \
	Rvdw 2.61727 \
	Res 1.42 \
	tauNuc 343133 \
	poleEl 15 7 1
forces-output-coords Positions
initial-state NbTe2.$VAR
ion Mo   0.166666670266667   0.083333326383333   0.558556097997901 1
ion Mo   0.083333336933333   0.166666659716667   0.441447899802099 1
ion Mo   0.416666670266667   0.083333326383333   0.558556097997901 1
ion Mo   0.333333336933333   0.166666659716667   0.441447899802099 1
ion Mo   0.666666670266667   0.083333326383333   0.558556097997901 1
ion Mo   0.583333336933333   0.166666659716667   0.441447899802099 1
ion Mo   0.916666670266667   0.083333326383333   0.558556097997901 1
ion Mo   0.833333336933333   0.166666659716667   0.441447899802099 1
ion Mo   0.166666670266667   0.333333326383333   0.558556097997901 1
ion Mo   0.083333336933333   0.416666659716667   0.441447899802099 1
ion Mo   0.416666670266667   0.333333326383333   0.558556097997901 1
ion Mo   0.333333336933333   0.416666659716667   0.441447899802099 1
ion Mo   0.666666670266667   0.333333326383333   0.558556097997901 1
ion Mo   0.583333336933333   0.416666659716667   0.441447899802099 1
ion Mo   0.916666670266667   0.333333326383333   0.558556097997901 1
ion Mo   0.833333336933333   0.416666659716667   0.441447899802099 1
ion Mo   0.166666670266667   0.583333326383333   0.558556097997901 1
ion Mo   0.083333336933333   0.666666659716667   0.441447899802099 1
ion Mo   0.416666670266667   0.583333326383333   0.558556097997901 1
ion Mo   0.333333336933333   0.666666659716667   0.441447899802099 1
ion Mo   0.666666670266667   0.583333326383333   0.558556097997901 1
ion Mo   0.583333336933333   0.666666659716667   0.441447899802099 1
ion Mo   0.916666670266667   0.583333326383333   0.558556097997901 1
ion Mo   0.833333336933333   0.666666659716667   0.441447899802099 1
ion Mo   0.166666670266667   0.833333326383333   0.558556097997901 1
ion Mo   0.083333336933333   0.916666659716667   0.441447899802099 1
ion Mo   0.416666670266667   0.833333326383333   0.558556097997901 1
ion Mo   0.333333336933333   0.916666659716667   0.441447899802099 1
ion Mo   0.666666670266667   0.833333326383333   0.558556097997901 1
ion Mo   0.583333336933333   0.916666659716667   0.441447899802099 1
ion Mo   0.916666670266667   0.833333326383333   0.558556097997901 1
ion Mo   0.833333336933333   0.916666659716667   0.441447899802099 1
ion C   0.000000003600000  -0.000000006950000   0.500001998900000 1
ion C   0.250000003600000  -0.000000006950000   0.500001998900000 1
ion C   0.500000003600000  -0.000000006950000   0.500001998900000 1
ion C   0.750000003600000  -0.000000006950000   0.500001998900000 1
ion C   0.000000003600000   0.249999993050000   0.500001998900000 1
ion C   0.250000003600000   0.249999993050000   0.500001998900000 1
ion C   0.500000003600000   0.249999993050000   0.500001998900000 1
ion C   0.750000003600000   0.249999993050000   0.500001998900000 1
ion C   0.000000003600000   0.499999993050000   0.500001998900000 1
ion C   0.250000003600000   0.499999993050000   0.500001998900000 1
ion C   0.500000003600000   0.499999993050000   0.500001998900000 1
ion C   0.750000003600000   0.499999993050000   0.500001998900000 1
ion C   0.000000003600000   0.749999993050000   0.500001998900000 1
ion C   0.250000003600000   0.749999993050000   0.500001998900000 1
ion C   0.500000003600000   0.749999993050000   0.500001998900000 1
ion C   0.750000003600000   0.749999993050000   0.500001998900000 1
ion O   0.083333336933333   0.166666659716667   0.616517487420202 1
ion O   0.166666670266667   0.083333326383333   0.383486510379798 1
ion O   0.333333336933333   0.166666659716667   0.616517487420202 1
ion O   0.416666670266667   0.083333326383333   0.383486510379798 1
ion O   0.583333336933333   0.166666659716667   0.616517487420202 1
ion O   0.666666670266667   0.083333326383333   0.383486510379798 1
ion O   0.833333336933333   0.166666659716667   0.616517487420202 1
ion O   0.916666670266667   0.083333326383333   0.383486510379798 1
ion O   0.083333336933333   0.416666659716667   0.616517487420202 1
ion O   0.166666670266667   0.333333326383333   0.383486510379798 1
ion O   0.333333336933333   0.416666659716667   0.616517487420202 1
ion O   0.416666670266667   0.333333326383333   0.383486510379798 1
ion O   0.583333336933333   0.416666659716667   0.616517487420202 1
ion O   0.666666670266667   0.333333326383333   0.383486510379798 1
ion O   0.833333336933333   0.416666659716667   0.616517487420202 1
ion O   0.916666670266667   0.333333326383333   0.383486510379798 1
ion O   0.083333336933333   0.666666659716667   0.616517487420202 1
ion O   0.166666670266667   0.583333326383333   0.383486510379798 1
ion O   0.333333336933333   0.666666659716667   0.616517487420202 1
ion O   0.416666670266667   0.583333326383333   0.383486510379798 1
ion O   0.583333336933333   0.666666659716667   0.616517487420202 1
ion O   0.666666670266667   0.583333326383333   0.383486510379798 1
ion O   0.833333336933333   0.666666659716667   0.616517487420202 1
ion O   0.916666670266667   0.583333326383333   0.383486510379798 1
ion O   0.083333336933333   0.916666659716667   0.616517487420202 1
ion O   0.166666670266667   0.833333326383333   0.383486510379798 1
ion O   0.333333336933333   0.916666659716667   0.616517487420202 1
ion O   0.416666670266667   0.833333326383333   0.383486510379798 1
ion O   0.583333336933333   0.916666659716667   0.616517487420202 1
ion O   0.666666670266667   0.833333326383333   0.383486510379798 1
ion O   0.833333336933333   0.916666659716667   0.616517487420202 1
ion O   0.916666670266667   0.833333326383333   0.383486510379798 1
ion-species GBRV/$ID_pbe.uspp
ion-width Ecut
ionic-minimize  \
	dirUpdateScheme      L-BFGS \
	linminMethod         DirUpdateRecommended \
	nIterations          500 \
	history              15 \
	knormThreshold       0.0001 \
	energyDiffThreshold  1e-06 \
	nEnergyDiff          2 \
	alphaTstart          1 \
	alphaTmin            1e-10 \
	updateTestStepSize   yes \
	alphaTreduceFactor   0.1 \
	alphaTincreaseFactor 3 \
	nAlphaAdjustMax      3 \
	wolfeEnergy          0.0001 \
	wolfeGradient        0.9 \
	fdTest               no
kpoint   0.000000000000   0.000000000000   0.000000000000  1.00000000000000
kpoint-folding 3 3 1 
latt-move-scale 1 1 1
latt-scale 1.88973 1.88973 1.88973 
lattice Triclinic 12.2054 12.2053 19.4677 90 90 120
lattice-minimize  \
	dirUpdateScheme      L-BFGS \
	linminMethod         DirUpdateRecommended \
	nIterations          0 \
	history              15 \
	knormThreshold       0 \
	energyDiffThreshold  1e-06 \
	nEnergyDiff          2 \
	alphaTstart          1 \
	alphaTmin            1e-10 \
	updateTestStepSize   yes \
	alphaTreduceFactor   0.1 \
	alphaTincreaseFactor 3 \
	nAlphaAdjustMax      3 \
	wolfeEnergy          0.0001 \
	wolfeGradient        0.9 \
	fdTest               no
lcao-params -1 1e-06 0.0073499
pcm-variant CANDLE
spintype no-spin
subspace-rotation-factor 1 yes
symmetries automatic
symmetry-threshold 0.0005



---------- Setting up symmetries ----------

Found 24 point-group symmetries of the bravais lattice
Found 192 space-group symmetries with basis
Applied RMS atom displacement 1.21207e-14 bohrs to make symmetries exact.

---------- Initializing the Grid ----------
R = 
[    23.0649   -11.5324          0  ]
[          0    19.9746          0  ]
[          0          0    36.7886  ]
unit cell volume = 16948.9
G =
[   0.272414   0.157279         -0  ]
[          0   0.314559          0  ]
[          0         -0   0.170792  ]
Minimum fftbox size, Smin = [  96  96  152  ]
Chosen fftbox size, S = [  96  96  160  ]

---------- Exchange Correlation functional ----------
Initalized PBE GGA exchange.
Initalized PBE GGA correlation.

---------- Setting up pseudopotentials ----------
Width of ionic core gaussian charges (only for fluid interactions / plotting) set to 0.397384

Reading pseudopotential file '/home/guoxy/vasp/jdftx-1.5.0/build/pseudopotentials/GBRV/mo_pbe.uspp':
  Title: Mo.  Created by USPP 7.3.6 on 14-9-2013
  Reference state energy: -69.261020.  14 valence electrons in orbitals:
    |400>  occupation: 2  eigenvalue: -2.465796
    |410>  occupation: 6  eigenvalue: -1.510132
    |420>  occupation: 4  eigenvalue: -0.207728
    |500>  occupation: 2  eigenvalue: -0.179278
    |510>  occupation: 0  eigenvalue: -0.052696
  lMax: 2  lLocal: 3  QijEcut: 5
  6 projectors sampled on a log grid with 629 points:
    l: 0  eig: -2.465797  rCut: 1.8
    l: 0  eig: -0.179280  rCut: 1.8
    l: 1  eig: -1.510132  rCut: 2
    l: 1  eig: 0.150000  rCut: 2
    l: 2  eig: -0.052696  rCut: 2.2
    l: 2  eig: 0.150000  rCut: 2.2
  Partial core density with radius 1.2
  Transforming core density to a uniform radial grid of dG=0.02 with 1481 points.
  Transforming local potential to a uniform radial grid of dG=0.02 with 1481 points.
  Transforming nonlocal projectors to a uniform radial grid of dG=0.02 with 432 points.
  Transforming density augmentations to a uniform radial grid of dG=0.02 with 1481 points.
  Transforming atomic orbitals to a uniform radial grid of dG=0.02 with 432 points.
  Core radius for overlap checks: 2.20 bohrs.

Reading pseudopotential file '/home/guoxy/vasp/jdftx-1.5.0/build/pseudopotentials/GBRV/c_pbe.uspp':
  Title: C.  Created by USPP 7.3.6 on 3-2-2014
  Reference state energy: -5.406344.  4 valence electrons in orbitals:
    |200>  occupation: 2  eigenvalue: -0.504890
    |210>  occupation: 2  eigenvalue: -0.194356
  lMax: 1  lLocal: 2  QijEcut: 5
  4 projectors sampled on a log grid with 503 points:
    l: 0  eig: -0.504890  rCut: 1.3
    l: 0  eig: 0.000000  rCut: 1.3
    l: 1  eig: -0.194357  rCut: 1.3
    l: 1  eig: 0.000000  rCut: 1.3
  Partial core density with radius 1.1
  Transforming core density to a uniform radial grid of dG=0.02 with 1481 points.
  Transforming local potential to a uniform radial grid of dG=0.02 with 1481 points.
  Transforming nonlocal projectors to a uniform radial grid of dG=0.02 with 432 points.
  Transforming density augmentations to a uniform radial grid of dG=0.02 with 1481 points.
  Transforming atomic orbitals to a uniform radial grid of dG=0.02 with 432 points.
  Core radius for overlap checks: 1.30 bohrs.

Reading pseudopotential file '/home/guoxy/vasp/jdftx-1.5.0/build/pseudopotentials/GBRV/o_pbe.uspp':
  Title: O.  Created by USPP 7.3.6 on 3-2-2014
  Reference state energy: -15.894388.  6 valence electrons in orbitals:
    |200>  occupation: 2  eigenvalue: -0.878823
    |210>  occupation: 4  eigenvalue: -0.332131
  lMax: 2  lLocal: 2  QijEcut: 6
  5 projectors sampled on a log grid with 511 points:
    l: 0  eig: -0.878823  rCut: 1.25
    l: 0  eig: 0.000000  rCut: 1.25
    l: 1  eig: -0.332132  rCut: 1.25
    l: 1  eig: 0.000000  rCut: 1.25
    l: 2  eig: 1.000000  rCut: 1.25
  Partial core density with radius 0.7
  Transforming core density to a uniform radial grid of dG=0.02 with 1481 points.
  Transforming local potential to a uniform radial grid of dG=0.02 with 1481 points.
  Transforming nonlocal projectors to a uniform radial grid of dG=0.02 with 432 points.
  Transforming density augmentations to a uniform radial grid of dG=0.02 with 1481 points.
  Transforming atomic orbitals to a uniform radial grid of dG=0.02 with 432 points.
  Core radius for overlap checks: 1.25 bohrs.

Initialized 3 species with 80 total atoms.

Folded 1 k-points by 3x3x1 to 9 k-points.

---------- Setting up k-points, bands, fillings ----------
Reduced to 3 k-points under symmetry. 
Computing the number of bands and number of electrons
Calculating initial fillings.
nElectrons: 705.000000   nBands: 608   nStates: 3

----- Setting up reduced wavefunction bases (one per k-point) -----
average nbasis = 72392.333 , ideal nbasis = 72407.045

---------- Setting up coulomb interaction ----------
Fluid mode embedding: using embedded box, but periodic Coulomb kernel.
(Fluid response is responsible for (approximate) separation between periodic images.)
Setting up double-sized grid for truncated Coulomb potentials:
R = 
[    23.0649   -11.5324          0  ]
[          0    19.9746          0  ]
[          0          0    73.5772  ]
unit cell volume = 33897.8
G =
[   0.272414   0.157279         -0  ]
[          0   0.314559          0  ]
[          0         -0  0.0853958  ]
Chosen fftbox size, S = [  96  96  320  ]
Integer grid location selected as the embedding center:
   Grid: [  48  48  80  ]
   Lattice: [  0.5  0.5  0.5  ]
   Cartesian: [  5.76625  9.98729  18.3943  ]
Constructing Wigner-Seitz cell: 8 faces (6 quadrilaterals, 2 hexagons)
Range-separation parameter for embedded mesh potentials due to point charges: 0.618372 bohrs.

Initializing van der Waals corrections
	NOTE: vdW corrections apply only for interactions with fluid.
	Mo:  C6:  427.91 Eh-a0^6  R0: 3.097 a0
	 C:  C6:   30.35 Eh-a0^6  R0: 2.744 a0
	 O:  C6:   12.14 Eh-a0^6  R0: 2.536 a0

---------- Setting up ewald sum ----------
Optimum gaussian width for ewald sums = 6.219933 bohr.
Real space sum over 405 unit cells with max indices [  4  4  2  ]
Reciprocal space sum over 8775 terms with max indices [  7  7  19  ]

---------- Allocating electronic variables ----------
Initializing wave functions:  linear combination of atomic orbitals
Mo pseudo-atom occupations:   s ( 2 0 )  p ( 6 0 )  d ( 6 )
C pseudo-atom occupations:   s ( 2 )  p ( 2 )
O pseudo-atom occupations:   s ( 2 )  p ( 4 )
	FillingsUpdate:  mu: +3.798740266  nElectrons: 705.000000
LCAOMinimize: Iter:   0  F: -2309.3804090732128316  |grad|_K:  4.804e-02  alpha:  1.000e+00
	FillingsUpdate:  mu: -3.914238392  nElectrons: 705.000000
LCAOMinimize: Iter:   1  F: -2407.4250747506093830  |grad|_K:  3.358e-02  alpha:  4.654e-01  linmin:  8.991e-02  cgtest: -1.609e+00  t[s]:     73.90
LCAOMinimize: 	Bad step direction: g.d > 0.
LCAOMinimize: 	Undoing step.
LCAOMinimize: 	Step failed: resetting search direction.
	FillingsUpdate:  mu: -3.914238392  nElectrons: 705.000000
LCAOMinimize: Iter:   2  F: -2407.4250747506093830  |grad|_K:  3.358e-02  alpha:  0.000e+00
	FillingsUpdate:  mu: -1.849351158  nElectrons: 705.000000
LCAOMinimize: Iter:   3  F: -2703.7848655469674668  |grad|_K:  2.470e-02  alpha:  1.698e-01  linmin: -1.457e-01  cgtest:  5.027e-01  t[s]:    106.52
	FillingsUpdate:  mu: -0.017435512  nElectrons: 705.000000
LCAOMinimize: Iter:   4  F: -2788.4690301858513521  |grad|_K:  5.740e-03  alpha:  1.767e-01  linmin: -1.257e-01  cgtest: -9.663e-02  t[s]:    125.00
	FillingsUpdate:  mu: +0.155742244  nElectrons: 705.000000
LCAOMinimize: Iter:   5  F: -2791.9098074984681261  |grad|_K:  4.469e-03  alpha:  1.308e-01  linmin:  1.363e-02  cgtest:  4.648e-01  t[s]:    143.94
	FillingsUpdate:  mu: +0.052175086  nElectrons: 705.000000
LCAOMinimize: Iter:   6  F: -2794.2666045528158065  |grad|_K:  1.160e-03  alpha:  2.225e-01  linmin:  5.857e-02  cgtest:  2.165e-01  t[s]:    162.44
	FillingsUpdate:  mu: -0.005710065  nElectrons: 705.000000
LCAOMinimize: Iter:   7  F: -2794.4005894799602174  |grad|_K:  5.523e-04  alpha:  1.843e-01  linmin: -1.997e-02  cgtest:  2.370e-02  t[s]:    181.55
	FillingsUpdate:  mu: -0.003811668  nElectrons: 705.000000
LCAOMinimize: Iter:   8  F: -2794.4564133113167372  |grad|_K:  2.350e-04  alpha:  3.245e-01  linmin:  1.707e-02  cgtest: -1.131e-01  t[s]:    200.18
	FillingsUpdate:  mu: -0.016027835  nElectrons: 705.000000
LCAOMinimize: Iter:   9  F: -2794.4679243932423560  |grad|_K:  5.002e-05  alpha:  3.877e-01  linmin:  1.370e-02  cgtest:  2.463e-01  t[s]:    218.94
LCAOMinimize: Encountered beta<0, resetting CG.
	FillingsUpdate:  mu: -0.014378381  nElectrons: 705.000000
LCAOMinimize: Iter:  10  F: -2794.4686140400103795  |grad|_K:  2.747e-05  alpha:  4.958e-01  linmin:  9.505e-04  cgtest: -3.435e-03  t[s]:    238.02
	FillingsUpdate:  mu: -0.015088259  nElectrons: 705.000000
LCAOMinimize: Iter:  11  F: -2794.4687502360161488  |grad|_K:  1.415e-05  alpha:  3.251e-01  linmin: -3.347e-06  cgtest:  3.475e-03  t[s]:    256.63
	FillingsUpdate:  mu: -0.014569496  nElectrons: 705.000000
LCAOMinimize: Iter:  12  F: -2794.4687720172964873  |grad|_K:  5.094e-06  alpha:  1.954e-01  linmin: -8.378e-05  cgtest: -4.604e-04  t[s]:    274.56
LCAOMinimize: 	Predicted alpha/alphaT>3.000000, increasing alphaT to 5.861211e-01.
	FillingsUpdate:  mu: -0.014917378  nElectrons: 705.000000
LCAOMinimize: Iter:  13  F: -2794.4687810037767122  |grad|_K:  3.617e-07  alpha:  6.226e-01  linmin:  3.696e-03  cgtest: -7.438e-03  t[s]:    298.65
	FillingsUpdate:  mu: -0.014899852  nElectrons: 705.000000
LCAOMinimize: Iter:  14  F: -2794.4687810487826027  |grad|_K:  3.134e-07  alpha:  6.188e-01  linmin:  1.276e-04  cgtest:  1.209e-03  t[s]:    316.95
	FillingsUpdate:  mu: -0.014911388  nElectrons: 705.000000
LCAOMinimize: Iter:  15  F: -2794.4687810605992127  |grad|_K:  1.175e-07  alpha:  2.167e-01  linmin:  6.216e-05  cgtest:  7.682e-04  t[s]:    335.34
LCAOMinimize: Converged (|Delta F|<1.000000e-06 for 2 iters).
----- createFluidSolver() ----- (Fluid-side solver setup)
   Initializing fluid molecule 'H2O'
     Initializing site 'O'
       Electron density: proportional to exp(-r/0.36935)*erfc((r-0.51523)/0.36823) with norm 6.826
       Charge density: gaussian nuclear width 0.478731 with net site charge 0.826
       Polarizability: cuspless exponential with width 0.32 and norm 3.73
       Hard sphere radius: 2.57003 bohrs
       Positions in reference frame:
         [ +0.000000 +0.000000 +0.000000 ]
     Initializing site 'H'
       Electron density: proportional to exp(-r/0.34641)*erfc((r-0)/0.390882) with norm 0.587
       Charge density: gaussian nuclear width 0.377945 with net site charge -0.413
       Polarizability: cuspless exponential with width 0.39 and norm 3.3
       Positions in reference frame:
         [ +0.000000 -1.441945 +1.122523 ]
         [ +0.000000 +1.441945 +1.122523 ]
     Net charge: 0   dipole magnitude: 0.927204
     Initializing spherical shell mfKernel with radius 2.61727 Bohr
     deltaS corrections:
       site 'O': -7.54299
       site 'H': -6.83917
   Initializing fluid molecule 'Na+'
     Initializing site 'Na'
       Electron density: proportional to exp(-r/0.19682)*erfc((r-0.71491)/0.41314) with norm 8.1383
       Charge density: gaussian nuclear width 0.365347 with net site charge -1
       Hard sphere radius: 1.86327 bohrs
       Positions in reference frame:
         [ +0.000000 +0.000000 +0.000000 ]
     Net charge: -1   dipole magnitude: 0
     Initializing gaussian mfKernel with width: 1.55004 Bohr
     deltaS corrections:
       site 'Na': -22.3555
   Initializing fluid molecule 'F-'
     Initializing site 'F'
       Electron density: proportional to exp(-r/0.38886)*erfc((r-0)/0.438782) with norm 8
       Charge density: gaussian nuclear width 0.374796 with net site charge 1
       Hard sphere radius: 2.39995 bohrs
       Positions in reference frame:
         [ +0.000000 +0.000000 +0.000000 ]
     Net charge: 1   dipole magnitude: 0
     Initializing gaussian mfKernel with width: 1.59012 Bohr
     deltaS corrections:
       site 'F': -9.04335

Correction to mu due to finite nuclear width = -0.0206063
   Cavity determined by nc: 0.00142 and sigma: 0.707107
   Nonlocal vdW cavity from gaussian model electron density with norm = 8 and sigma = 0.993594 bohr
   Charge asymmetry in cavity with sensitivity pCavity = 36.5 e-bohr/Eh
   Electrostatic cavity expanded by eta = 1.46 bohrs
   Weighted density cavitation model constrained by Nbulk: 0.0049383 bohr^-3, Pvap: 3.14029 kPa, Rvdw: 2.61727 bohr and sigmaBulk: 4.62e-05 Eh/bohr^2 at T: 298 K.
   Weighted density dispersion model using vdW pair potentials with single solvent site with sqrtC6eff: 0.77 SI.


---- Citations for features of the code used in this run ----

   Software package:
      R. Sundararaman, K. Letchworth-Weaver, K.A. Schwarz, D. Gunceler, Y. Ozhabes and T.A. Arias, 'JDFTx: software for joint density-functional theory', SoftwareX 6, 278 (2017)

   gga-PBE exchange-correlation functional:
      J.P. Perdew, K. Burke and M. Ernzerhof, Phys. Rev. Lett. 77, 3865 (1996)

   Pseudopotentials:
      KF Garrity, JW Bennett, KM Rabe and D Vanderbilt, Comput. Mater. Sci. 81, 446 (2014)

   Truncated Coulomb potentials:
      R. Sundararaman and T.A. Arias, Phys. Rev. B 87, 165122 (2013)

   Van der Waals correction pair-potentials:
      S. Grimme, J. Comput. Chem. 27, 1787 (2006)

   Charge-asymmetric nonlocally-determined local-electric (CANDLE) solvation model:
      R. Sundararaman and W.A. Goddard III, J. Chem. Phys. 142, 064107 (2015)

   Total energy minimization with Auxiliary Hamiltonian:
      C. Freysoldt, S. Boeck, and J. Neugebauer, Phys. Rev. B 79, 241103(R) (2009)

This list may not be complete. Please suggest additional citations or
report any other bugs at https://github.com/shankar1729/jdftx/issues

Initialization completed successfully at t[s]:    340.40

Fluid solver invoked on fresh (partially random / LCAO) wavefunctions
Running a vacuum solve first:

-------- Initial electronic minimization -----------
	FillingsUpdate:  mu: -0.014911388  nElectrons: 705.000000
ElecMinimize: Iter:   0  F: -2794.468781060606489  |grad|_K:  1.481e-04  alpha:  1.000e+00
	FillingsUpdate:  mu: +0.061562952  nElectrons: 705.000000
	SubspaceRotationAdjust: set factor to 0.8
ElecMinimize: Iter:   1  F: -2796.244756923207206  |grad|_K:  1.087e-04  alpha:  6.093e-01  linmin:  2.126e-06  t[s]:    384.18
	FillingsUpdate:  mu: -0.014546711  nElectrons: 705.000000
	SubspaceRotationAdjust: set factor to 0.439
ElecMinimize: Iter:   2  F: -2796.604353905898734  |grad|_K:  6.181e-05  alpha:  2.710e-01  linmin:  9.717e-05  t[s]:    410.96
	FillingsUpdate:  mu: +0.019181314  nElectrons: 705.000000
	SubspaceRotationAdjust: set factor to 0.559
ElecMinimize: Iter:   3  F: -2796.774788993174752  |grad|_K:  3.020e-05  alpha:  3.669e-01  linmin:  1.772e-05  t[s]:    438.55
	FillingsUpdate:  mu: +0.019780993  nElectrons: 705.000000
	SubspaceRotationAdjust: set factor to 0.623
ElecMinimize: Iter:   4  F: -2796.826152509185704  |grad|_K:  1.658e-05  alpha:  4.303e-01  linmin:  1.545e-05  t[s]:    465.94
	FillingsUpdate:  mu: +0.011227833  nElectrons: 705.000000
	SubspaceRotationAdjust: set factor to 0.705
ElecMinimize: Iter:   5  F: -2796.843296120742707  |grad|_K:  1.054e-05  alpha:  4.729e-01  linmin:  1.069e-06  t[s]:    493.10
	FillingsUpdate:  mu: +0.015885762  nElectrons: 705.000000
	SubspaceRotationAdjust: set factor to 0.851
ElecMinimize: Iter:   6  F: -2796.849047672042616  |grad|_K:  6.307e-06  alpha:  3.897e-01  linmin:  2.640e-06  t[s]:    520.98
	FillingsUpdate:  mu: +0.017336907  nElectrons: 705.000000
	SubspaceRotationAdjust: set factor to 0.962
ElecMinimize: Iter:   7  F: -2796.851579528460661  |grad|_K:  3.738e-06  alpha:  4.826e-01  linmin:  1.121e-05  t[s]:    547.70
	FillingsUpdate:  mu: +0.015396683  nElectrons: 705.000000
	SubspaceRotationAdjust: set factor to 0.798
ElecMinimize: Iter:   8  F: -2796.852217670244499  |grad|_K:  2.322e-06  alpha:  3.489e-01  linmin:  2.435e-07  t[s]:    575.48
	FillingsUpdate:  mu: +0.016437523  nElectrons: 705.000000
	SubspaceRotationAdjust: set factor to 0.589
ElecMinimize: Iter:   9  F: -2796.852441614492363  |grad|_K:  1.263e-06  alpha:  3.129e-01  linmin:  8.098e-07  t[s]:    602.86
	FillingsUpdate:  mu: +0.015997538  nElectrons: 705.000000
	SubspaceRotationAdjust: set factor to 0.724
ElecMinimize: Iter:  10  F: -2796.852525309244811  |grad|_K:  8.099e-07  alpha:  3.964e-01  linmin:  4.213e-07  t[s]:    630.13
	FillingsUpdate:  mu: +0.015827942  nElectrons: 705.000000
	SubspaceRotationAdjust: set factor to 0.826
ElecMinimize: Iter:  11  F: -2796.852563034236937  |grad|_K:  5.459e-07  alpha:  4.341e-01  linmin:  4.011e-07  t[s]:    657.25
	FillingsUpdate:  mu: +0.016145173  nElectrons: 705.000000
	SubspaceRotationAdjust: set factor to 0.85
ElecMinimize: Iter:  12  F: -2796.852579616579533  |grad|_K:  4.092e-07  alpha:  4.199e-01  linmin:  3.537e-07  t[s]:    684.32
	FillingsUpdate:  mu: +0.015998601  nElectrons: 705.000000
	SubspaceRotationAdjust: set factor to 0.813
ElecMinimize: Iter:  13  F: -2796.852589282775170  |grad|_K:  2.693e-07  alpha:  4.359e-01  linmin:  4.161e-07  t[s]:    711.85
	FillingsUpdate:  mu: +0.016013157  nElectrons: 705.000000
	SubspaceRotationAdjust: set factor to 0.863
ElecMinimize: Iter:  14  F: -2796.852593373240325  |grad|_K:  1.855e-07  alpha:  4.262e-01  linmin:  1.633e-07  t[s]:    739.56
	FillingsUpdate:  mu: +0.016052754  nElectrons: 705.000000
	SubspaceRotationAdjust: set factor to 0.946
ElecMinimize: Iter:  15  F: -2796.852595445880070  |grad|_K:  1.406e-07  alpha:  4.549e-01  linmin:  1.571e-07  t[s]:    767.58
	FillingsUpdate:  mu: +0.015999181  nElectrons: 705.000000
	SubspaceRotationAdjust: set factor to 0.972
ElecMinimize: Iter:  16  F: -2796.852596554586398  |grad|_K:  1.079e-07  alpha:  4.233e-01  linmin:  7.180e-08  t[s]:    794.54
	FillingsUpdate:  mu: +0.016047184  nElectrons: 705.000000
	SubspaceRotationAdjust: set factor to 0.99
ElecMinimize: Iter:  17  F: -2796.852597198783315  |grad|_K:  7.304e-08  alpha:  4.177e-01  linmin:  1.333e-07  t[s]:    822.12
	FillingsUpdate:  mu: +0.016022716  nElectrons: 705.000000
	SubspaceRotationAdjust: set factor to 0.982
ElecMinimize: Iter:  18  F: -2796.852597488734773  |grad|_K:  5.276e-08  alpha:  4.109e-01  linmin:  3.589e-08  t[s]:    849.54
	FillingsUpdate:  mu: +0.016030214  nElectrons: 705.000000
	SubspaceRotationAdjust: set factor to 1.04
ElecMinimize: Iter:  19  F: -2796.852597625892031  |grad|_K:  3.210e-08  alpha:  3.719e-01  linmin:  1.846e-08  t[s]:    876.73
	FillingsUpdate:  mu: +0.016030441  nElectrons: 705.000000
	SubspaceRotationAdjust: set factor to 1.21
ElecMinimize: Iter:  20  F: -2796.852597693843563  |grad|_K:  2.329e-08  alpha:  4.981e-01  linmin:  3.981e-08  t[s]:    904.46
	FillingsUpdate:  mu: +0.016024681  nElectrons: 705.000000
	SubspaceRotationAdjust: set factor to 1.3
ElecMinimize: Iter:  21  F: -2796.852597727517150  |grad|_K:  1.964e-08  alpha:  4.693e-01  linmin:  1.337e-08  t[s]:    931.47
	FillingsUpdate:  mu: +0.016033506  nElectrons: 705.000000
	SubspaceRotationAdjust: set factor to 1.15
ElecMinimize: Iter:  22  F: -2796.852597745333242  |grad|_K:  1.373e-08  alpha:  3.481e-01  linmin:  3.469e-09  t[s]:    959.11
	FillingsUpdate:  mu: +0.016026031  nElectrons: 705.000000
	SubspaceRotationAdjust: set factor to 0.921
ElecMinimize: Iter:  23  F: -2796.852597753490500  |grad|_K:  1.165e-08  alpha:  3.266e-01  linmin:  8.676e-09  t[s]:    987.40
	FillingsUpdate:  mu: +0.016030950  nElectrons: 705.000000
	SubspaceRotationAdjust: set factor to 0.932
ElecMinimize: Iter:  24  F: -2796.852597759815581  |grad|_K:  7.670e-09  alpha:  3.520e-01  linmin:  7.299e-09  t[s]:   1014.63
ElecMinimize: Converged (|Delta F|<1.000000e-08 for 2 iters).
Setting wave functions to eigenvectors of Hamiltonian
Vacuum energy after initial minimize, F = -2796.852597759815581

	Linear fluid (dielectric constant: 78.4, screening length: 5.74355 Bohr) occupying 0.757811 of unit cell:	Completed after 19 iterations at t[s]:   1023.98

-------- Electronic minimization -----------
	Linear fluid (dielectric constant: 78.4, screening length: 5.74355 Bohr) occupying 0.757811 of unit cell:	Completed after 0 iterations at t[s]:   1034.27
	FillingsUpdate:  mu: -0.200934121  nElectrons: 705.000000
ElecMinimize: Iter:   0  F: -2797.028139034895958  |grad|_K:  2.993e-06  alpha:  1.000e+00
	Linear fluid (dielectric constant: 78.4, screening length: 5.74355 Bohr) occupying 0.758080 of unit cell:	Completed after 12 iterations at t[s]:   1059.12
	Linear fluid (dielectric constant: 78.4, screening length: 5.74355 Bohr) occupying 0.757874 of unit cell:	Completed after 12 iterations at t[s]:   1074.20
	FillingsUpdate:  mu: -0.204049335  nElectrons: 705.000000
	SubspaceRotationAdjust: set factor to 0.618
ElecMinimize: Iter:   1  F: -2797.028391183506756  |grad|_K:  1.552e-06  alpha:  2.149e-01  linmin:  1.106e-06  t[s]:   1089.32
	Linear fluid (dielectric constant: 78.4, screening length: 5.74355 Bohr) occupying 0.757955 of unit cell:	Completed after 2 iterations at t[s]:   1098.53
	Linear fluid (dielectric constant: 78.4, screening length: 5.74355 Bohr) occupying 0.758066 of unit cell:	Completed after 2 iterations at t[s]:   1110.21
	FillingsUpdate:  mu: -0.204129231  nElectrons: 705.000000
	SubspaceRotationAdjust: set factor to 0.894
ElecMinimize: Iter:   2  F: -2797.028558424355651  |grad|_K:  6.963e-07  alpha:  5.221e-01  linmin: -8.141e-07  t[s]:   1123.78
	Linear fluid (dielectric constant: 78.4, screening length: 5.74355 Bohr) occupying 0.758152 of unit cell:	Completed after 6 iterations at t[s]:   1133.64
	Linear fluid (dielectric constant: 78.4, screening length: 5.74355 Bohr) occupying 0.758154 of unit cell:	Completed after 0 iterations at t[s]:   1145.61
	FillingsUpdate:  mu: -0.203933929  nElectrons: 705.000000
	SubspaceRotationAdjust: set factor to 1.05
ElecMinimize: Iter:   3  F: -2797.028593783242741  |grad|_K:  3.894e-07  alpha:  5.364e-01  linmin: -3.574e-07  t[s]:   1158.78
	Linear fluid (dielectric constant: 78.4, screening length: 5.74355 Bohr) occupying 0.758206 of unit cell:	Completed after 9 iterations at t[s]:   1169.49
	Linear fluid (dielectric constant: 78.4, screening length: 5.74355 Bohr) occupying 0.758193 of unit cell:	Completed after 2 iterations at t[s]:   1182.33
	FillingsUpdate:  mu: -0.203543033  nElectrons: 705.000000
	SubspaceRotationAdjust: set factor to 0.92
ElecMinimize: Iter:   4  F: -2797.028601938773136  |grad|_K:  2.215e-07  alpha:  4.045e-01  linmin: -1.478e-07  t[s]:   1195.73
	Linear fluid (dielectric constant: 78.4, screening length: 5.74355 Bohr) occupying 0.758207 of unit cell:	Completed after 3 iterations at t[s]:   1205.16
	Linear fluid (dielectric constant: 78.4, screening length: 5.74355 Bohr) occupying 0.758206 of unit cell:	Completed after 0 iterations at t[s]:   1216.88
	FillingsUpdate:  mu: -0.203712529  nElectrons: 705.000000
	SubspaceRotationAdjust: set factor to 0.614
ElecMinimize: Iter:   5  F: -2797.028604236817046  |grad|_K:  1.656e-07  alpha:  3.494e-01  linmin:  4.346e-06  t[s]:   1229.92
	Linear fluid (dielectric constant: 78.4, screening length: 5.74355 Bohr) occupying 0.758212 of unit cell:	Completed after 1 iterations at t[s]:   1238.75
	Linear fluid (dielectric constant: 78.4, screening length: 5.74355 Bohr) occupying 0.758211 of unit cell:	Completed after 1 iterations at t[s]:   1250.56
	FillingsUpdate:  mu: -0.203644651  nElectrons: 705.000000
	SubspaceRotationAdjust: set factor to 0.402
ElecMinimize: Iter:   6  F: -2797.028605071789116  |grad|_K:  8.911e-08  alpha:  2.533e-01  linmin:  4.821e-06  t[s]:   1264.04
	Linear fluid (dielectric constant: 78.4, screening length: 5.74355 Bohr) occupying 0.758212 of unit cell:	Completed after 0 iterations at t[s]:   1272.49
	Linear fluid (dielectric constant: 78.4, screening length: 5.74355 Bohr) occupying 0.758214 of unit cell:	Completed after 2 iterations at t[s]:   1283.44
	FillingsUpdate:  mu: -0.203653409  nElectrons: 705.000000
	SubspaceRotationAdjust: set factor to 0.418
ElecMinimize: Iter:   7  F: -2797.028605613075797  |grad|_K:  6.917e-08  alpha:  6.857e-01  linmin:  1.268e-05  t[s]:   1297.74
	Linear fluid (dielectric constant: 78.4, screening length: 5.74355 Bohr) occupying 0.758214 of unit cell:	Completed after 0 iterations at t[s]:   1306.73
	Linear fluid (dielectric constant: 78.4, screening length: 5.74355 Bohr) occupying 0.758214 of unit cell:	Completed after 0 iterations at t[s]:   1317.61
	FillingsUpdate:  mu: -0.203653337  nElectrons: 705.000000
	SubspaceRotationAdjust: set factor to 0.478
ElecMinimize: Iter:   8  F: -2797.028605831013465  |grad|_K:  4.569e-08  alpha:  4.012e-01  linmin: -5.061e-08  t[s]:   1331.07
	Linear fluid (dielectric constant: 78.4, screening length: 5.74355 Bohr) occupying 0.758213 of unit cell:	Completed after 0 iterations at t[s]:   1339.82
	Linear fluid (dielectric constant: 78.4, screening length: 5.74355 Bohr) occupying 0.758213 of unit cell:	Completed after 0 iterations at t[s]:   1350.89
	FillingsUpdate:  mu: -0.203653283  nElectrons: 705.000000
	SubspaceRotationAdjust: set factor to 0.616
ElecMinimize: Iter:   9  F: -2797.028605947934466  |grad|_K:  2.839e-08  alpha:  4.188e-01  linmin: -5.885e-06  t[s]:   1363.74
	Linear fluid (dielectric constant: 78.4, screening length: 5.74355 Bohr) occupying 0.758212 of unit cell:	Completed after 2 iterations at t[s]:   1372.69
	Linear fluid (dielectric constant: 78.4, screening length: 5.74355 Bohr) occupying 0.758213 of unit cell:	Completed after 0 iterations at t[s]:   1384.12
ElecMinimize: 	Step increased F by 1.437047e-08, reducing alpha to 1.750432e-02.
	Linear fluid (dielectric constant: 78.4, screening length: 5.74355 Bohr) occupying 0.758213 of unit cell:	Completed after 0 iterations at t[s]:   1403.71
ElecMinimize: 	Step increased F by 2.408160e-08, reducing alpha to 1.750432e-03.
	Linear fluid (dielectric constant: 78.4, screening length: 5.74355 Bohr) occupying 0.758213 of unit cell:	Completed after 0 iterations at t[s]:   1423.87
ElecMinimize: 	Step increased F by 2.558681e-08, reducing alpha to 1.750432e-04.
ElecMinimize: 	Step failed to reduce F after 3 attempts. Quitting step.
ElecMinimize: 	Undoing step.
	Linear fluid (dielectric constant: 78.4, screening length: 5.74355 Bohr) occupying 0.758213 of unit cell:	Completed after 0 iterations at t[s]:   1443.52
ElecMinimize: 	Step failed: resetting search direction.
	FillingsUpdate:  mu: -0.203657831  nElectrons: 705.000000
	SubspaceRotationAdjust: set factor to 0.593
ElecMinimize: Iter:  10  F: -2797.028605922241695  |grad|_K:  3.833e-08  alpha:  1.750e-04
	Linear fluid (dielectric constant: 78.4, screening length: 5.74355 Bohr) occupying 0.758212 of unit cell:	Completed after 0 iterations at t[s]:   1465.30
	Linear fluid (dielectric constant: 78.4, screening length: 5.74355 Bohr) occupying 0.758212 of unit cell:	Completed after 1 iterations at t[s]:   1476.50
	FillingsUpdate:  mu: -0.203670348  nElectrons: 705.000000
	SubspaceRotationAdjust: set factor to 0.525
ElecMinimize: Iter:  11  F: -2797.028605922866518  |grad|_K:  3.835e-08  alpha:  5.129e-01  linmin:  3.571e-05  t[s]:   1490.05
	Linear fluid (dielectric constant: 78.4, screening length: 5.74355 Bohr) occupying 0.758211 of unit cell:	Completed after 0 iterations at t[s]:   1498.66
	Linear fluid (dielectric constant: 78.4, screening length: 5.74355 Bohr) occupying 0.758211 of unit cell:	Completed after 0 iterations at t[s]:   1509.51
	FillingsUpdate:  mu: -0.203670003  nElectrons: 705.000000
	SubspaceRotationAdjust: set factor to 0.678
ElecMinimize: Iter:  12  F: -2797.028605955027615  |grad|_K:  3.279e-08  alpha:  4.932e-01  linmin:  8.163e-09  t[s]:   1522.67
	Linear fluid (dielectric constant: 78.4, screening length: 5.74355 Bohr) occupying 0.758209 of unit cell:	Completed after 1 iterations at t[s]:   1531.24
	Linear fluid (dielectric constant: 78.4, screening length: 5.74355 Bohr) occupying 0.758210 of unit cell:	Completed after 0 iterations at t[s]:   1542.14
	FillingsUpdate:  mu: -0.203660716  nElectrons: 705.000000
	SubspaceRotationAdjust: set factor to 0.808
ElecMinimize: Iter:  13  F: -2797.028605981778583  |grad|_K:  1.899e-08  alpha:  2.693e-01  linmin: -1.256e-06  t[s]:   1555.30
	Linear fluid (dielectric constant: 78.4, screening length: 5.74355 Bohr) occupying 0.758210 of unit cell:	Completed after 0 iterations at t[s]:   1563.88
	Linear fluid (dielectric constant: 78.4, screening length: 5.74355 Bohr) occupying 0.758210 of unit cell:	Completed after 0 iterations at t[s]:   1574.54
	FillingsUpdate:  mu: -0.203660939  nElectrons: 705.000000
	SubspaceRotationAdjust: set factor to 1.06
ElecMinimize: Iter:  14  F: -2797.028606005701931  |grad|_K:  1.939e-08  alpha:  4.910e-01  linmin:  1.644e-07  t[s]:   1587.76
	Linear fluid (dielectric constant: 78.4, screening length: 5.74355 Bohr) occupying 0.758209 of unit cell:	Completed after 2 iterations at t[s]:   1596.83
	Linear fluid (dielectric constant: 78.4, screening length: 5.74355 Bohr) occupying 0.758209 of unit cell:	Completed after 0 iterations at t[s]:   1608.55
	FillingsUpdate:  mu: -0.203670740  nElectrons: 705.000000
	SubspaceRotationAdjust: set factor to 0.828
ElecMinimize: Iter:  15  F: -2797.028606022734948  |grad|_K:  4.665e-08  alpha:  8.349e-02  linmin:  1.985e-05  t[s]:   1621.46
ElecMinimize: 	Bad step direction: g.d > 0.
ElecMinimize: 	Undoing step.
	Linear fluid (dielectric constant: 78.4, screening length: 5.74355 Bohr) occupying 0.758209 of unit cell:	Completed after 0 iterations at t[s]:   1630.15
ElecMinimize: 	Step failed: resetting search direction.
	FillingsUpdate:  mu: -0.203670740  nElectrons: 705.000000
	SubspaceRotationAdjust: set factor to 0.71
ElecMinimize: Iter:  16  F: -2797.028606022705844  |grad|_K:  4.320e-08  alpha:  0.000e+00
	Linear fluid (dielectric constant: 78.4, screening length: 5.74355 Bohr) occupying 0.758210 of unit cell:	Completed after 0 iterations at t[s]:   1652.11
ElecMinimize: 	Predicted alpha/alphaT>3.000000, increasing alphaT to 2.504654e-01.
	Linear fluid (dielectric constant: 78.4, screening length: 5.74355 Bohr) occupying 0.758210 of unit cell:	Completed after 2 iterations at t[s]:   1662.88
	Linear fluid (dielectric constant: 78.4, screening length: 5.74355 Bohr) occupying 0.758210 of unit cell:	Completed after 0 iterations at t[s]:   1674.07
ElecMinimize: 	Step increased F by 8.224106e-09, reducing alpha to 9.815298e-03.
	Linear fluid (dielectric constant: 78.4, screening length: 5.74355 Bohr) occupying 0.758209 of unit cell:	Completed after 0 iterations at t[s]:   1694.68
	FillingsUpdate:  mu: -0.203666406  nElectrons: 705.000000
	SubspaceRotationAdjust: set factor to 0.333
ElecMinimize: Iter:  17  F: -2797.028606023368866  |grad|_K:  1.873e-08  alpha:  9.815e-03  linmin:  2.905e-05  t[s]:   1707.55
	Linear fluid (dielectric constant: 78.4, screening length: 5.74355 Bohr) occupying 0.758209 of unit cell:	Completed after 0 iterations at t[s]:   1716.33
ElecMinimize: 	Predicted alpha/alphaT>3.000000, increasing alphaT to 2.944589e-02.
	Linear fluid (dielectric constant: 78.4, screening length: 5.74355 Bohr) occupying 0.758209 of unit cell:	Completed after 0 iterations at t[s]:   1727.37
ElecMinimize: 	Predicted alpha/alphaT>3.000000, increasing alphaT to 8.833768e-02.
	Linear fluid (dielectric constant: 78.4, screening length: 5.74355 Bohr) occupying 0.758210 of unit cell:	Completed after 0 iterations at t[s]:   1737.84
ElecMinimize: 	Predicted alpha/alphaT>3.000000, increasing alphaT to 2.650130e-01.
	Linear fluid (dielectric constant: 78.4, screening length: 5.74355 Bohr) occupying 0.758210 of unit cell:	Completed after 0 iterations at t[s]:   1748.68
	FillingsUpdate:  mu: -0.203666537  nElectrons: 705.000000
	SubspaceRotationAdjust: set factor to 0.392
ElecMinimize: Iter:  18  F: -2797.028606035176381  |grad|_K:  1.199e-08  alpha:  2.901e-01  linmin: -1.395e-06  t[s]:   1761.68
	Linear fluid (dielectric constant: 78.4, screening length: 5.74355 Bohr) occupying 0.758210 of unit cell:	Completed after 0 iterations at t[s]:   1770.14
ElecMinimize: 	Predicted alpha/alphaT>3.000000, increasing alphaT to 8.701893e-01.
	Linear fluid (dielectric constant: 78.4, screening length: 5.74355 Bohr) occupying 0.758210 of unit cell:	Completed after 2 iterations at t[s]:   1781.57
	Linear fluid (dielectric constant: 78.4, screening length: 5.74355 Bohr) occupying 0.758210 of unit cell:	Completed after 0 iterations at t[s]:   1792.75
ElecMinimize: 	Step increased F by 2.941579e-08, reducing alpha to 1.192051e-02.
	Linear fluid (dielectric constant: 78.4, screening length: 5.74355 Bohr) occupying 0.758210 of unit cell:	Completed after 0 iterations at t[s]:   1812.68
ElecMinimize: 	Step increased F by 2.280467e-08, reducing alpha to 1.192051e-03.
	Linear fluid (dielectric constant: 78.4, screening length: 5.74355 Bohr) occupying 0.758210 of unit cell:	Completed after 0 iterations at t[s]:   1832.70
ElecMinimize: 	Step increased F by 2.207889e-08, reducing alpha to 1.192051e-04.
ElecMinimize: 	Step failed to reduce F after 3 attempts. Quitting step.
ElecMinimize: 	Undoing step.
	Linear fluid (dielectric constant: 78.4, screening length: 5.74355 Bohr) occupying 0.758210 of unit cell:	Completed after 0 iterations at t[s]:   1852.76
ElecMinimize: 	Step failed: resetting search direction.
	FillingsUpdate:  mu: -0.203669319  nElectrons: 705.000000
	SubspaceRotationAdjust: set factor to 0.324
ElecMinimize: Iter:  19  F: -2797.028606013142507  |grad|_K:  2.526e-08  alpha:  1.192e-04
	Linear fluid (dielectric constant: 78.4, screening length: 5.74355 Bohr) occupying 0.758210 of unit cell:	Completed after 0 iterations at t[s]:   1874.85
	Linear fluid (dielectric constant: 78.4, screening length: 5.74355 Bohr) occupying 0.758210 of unit cell:	Completed after 0 iterations at t[s]:   1885.88
	FillingsUpdate:  mu: -0.203668709  nElectrons: 705.000000
	SubspaceRotationAdjust: set factor to 0.254
ElecMinimize: Iter:  20  F: -2797.028606039654278  |grad|_K:  1.590e-08  alpha:  3.019e-01  linmin: -1.396e-04  t[s]:   1899.65
	Linear fluid (dielectric constant: 78.4, screening length: 5.74355 Bohr) occupying 0.758210 of unit cell:	Completed after 2 iterations at t[s]:   1908.34
	Linear fluid (dielectric constant: 78.4, screening length: 5.74355 Bohr) occupying 0.758210 of unit cell:	Completed after 0 iterations at t[s]:   1919.57
ElecMinimize: 	Step increased F by 3.424748e-08, reducing alpha to 4.993622e-03.
	Linear fluid (dielectric constant: 78.4, screening length: 5.74355 Bohr) occupying 0.758210 of unit cell:	Completed after 0 iterations at t[s]:   1939.47
ElecMinimize: 	Step increased F by 2.979459e-08, reducing alpha to 4.993622e-04.
	Linear fluid (dielectric constant: 78.4, screening length: 5.74355 Bohr) occupying 0.758210 of unit cell:	Completed after 0 iterations at t[s]:   1959.29
ElecMinimize: 	Step increased F by 2.937713e-08, reducing alpha to 4.993622e-05.
ElecMinimize: 	Step failed to reduce F after 3 attempts. Quitting step.
ElecMinimize: 	Undoing step.
	Linear fluid (dielectric constant: 78.4, screening length: 5.74355 Bohr) occupying 0.758210 of unit cell:	Completed after 0 iterations at t[s]:   1979.51
ElecMinimize: 	Step failed: resetting search direction.
	FillingsUpdate:  mu: -0.203667294  nElectrons: 705.000000
	SubspaceRotationAdjust: set factor to 0.181
ElecMinimize: Iter:  21  F: -2797.028606010195745  |grad|_K:  1.856e-08  alpha:  4.994e-05
	Linear fluid (dielectric constant: 78.4, screening length: 5.74355 Bohr) occupying 0.758210 of unit cell:	Completed after 0 iterations at t[s]:   2001.88
	Linear fluid (dielectric constant: 78.4, screening length: 5.74355 Bohr) occupying 0.758210 of unit cell:	Completed after 0 iterations at t[s]:   2012.73
	FillingsUpdate:  mu: -0.203667262  nElectrons: 705.000000
	SubspaceRotationAdjust: set factor to 0.245
ElecMinimize: Iter:  22  F: -2797.028606035635221  |grad|_K:  1.563e-08  alpha:  5.566e-01  linmin:  2.178e-07  t[s]:   2025.87
	Linear fluid (dielectric constant: 78.4, screening length: 5.74355 Bohr) occupying 0.758210 of unit cell:	Completed after 1 iterations at t[s]:   2034.96
	Linear fluid (dielectric constant: 78.4, screening length: 5.74355 Bohr) occupying 0.758210 of unit cell:	Completed after 0 iterations at t[s]:   2045.93
ElecMinimize: 	Step increased F by 4.194908e-08, reducing alpha to 7.873769e-03.
	Linear fluid (dielectric constant: 78.4, screening length: 5.74355 Bohr) occupying 0.758210 of unit cell:	Completed after 0 iterations at t[s]:   2066.01
ElecMinimize: 	Step increased F by 3.712057e-08, reducing alpha to 7.873769e-04.
	Linear fluid (dielectric constant: 78.4, screening length: 5.74355 Bohr) occupying 0.758210 of unit cell:	Completed after 0 iterations at t[s]:   2085.93
ElecMinimize: 	Step increased F by 3.673586e-08, reducing alpha to 7.873769e-05.
ElecMinimize: 	Step failed to reduce F after 3 attempts. Quitting step.
ElecMinimize: 	Undoing step.
	Linear fluid (dielectric constant: 78.4, screening length: 5.74355 Bohr) occupying 0.758210 of unit cell:	Completed after 0 iterations at t[s]:   2106.09
ElecMinimize: 	Step failed: resetting search direction.
	FillingsUpdate:  mu: -0.203667944  nElectrons: 705.000000
	SubspaceRotationAdjust: set factor to 0.227
ElecMinimize: Iter:  23  F: -2797.028605998954390  |grad|_K:  2.912e-08  alpha:  7.874e-05
	Linear fluid (dielectric constant: 78.4, screening length: 5.74355 Bohr) occupying 0.758210 of unit cell:	Completed after 1 iterations at t[s]:   2128.86
	Linear fluid (dielectric constant: 78.4, screening length: 5.74355 Bohr) occupying 0.758210 of unit cell:	Completed after 0 iterations at t[s]:   2139.93
	FillingsUpdate:  mu: -0.203673260  nElectrons: 705.000000
	SubspaceRotationAdjust: set factor to 0.416
ElecMinimize: Iter:  24  F: -2797.028606012075215  |grad|_K:  7.478e-09  alpha:  2.525e-01  linmin: -1.693e-06  t[s]:   2153.16
	Linear fluid (dielectric constant: 78.4, screening length: 5.74355 Bohr) occupying 0.758210 of unit cell:	Completed after 0 iterations at t[s]:   2161.89
	Linear fluid (dielectric constant: 78.4, screening length: 5.74355 Bohr) occupying 0.758210 of unit cell:	Completed after 0 iterations at t[s]:   2172.49
	FillingsUpdate:  mu: -0.203673207  nElectrons: 705.000000
	SubspaceRotationAdjust: set factor to 0.417
ElecMinimize: Iter:  25  F: -2797.028606015126115  |grad|_K:  6.907e-09  alpha:  3.837e-01  linmin: -5.562e-06  t[s]:   2185.79
	Linear fluid (dielectric constant: 78.4, screening length: 5.74355 Bohr) occupying 0.758210 of unit cell:	Completed after 0 iterations at t[s]:   2194.27
	Linear fluid (dielectric constant: 78.4, screening length: 5.74355 Bohr) occupying 0.758210 of unit cell:	Completed after 0 iterations at t[s]:   2205.19
	FillingsUpdate:  mu: -0.203672896  nElectrons: 705.000000
	SubspaceRotationAdjust: set factor to 0.551
ElecMinimize: Iter:  26  F: -2797.028606022743134  |grad|_K:  7.082e-09  alpha:  1.088e+00  linmin:  2.490e-07  t[s]:   2218.24
ElecMinimize: Converged (|Delta F|<1.000000e-08 for 2 iters).
Setting wave functions to eigenvectors of Hamiltonian
Single-point solvation energy estimate, DeltaF = -0.176008262927553

# Ionic positions in lattice coordinates:
ion Mo   0.166666670266667   0.083333326383333   0.558556097997901 1
ion Mo   0.083333336933333   0.166666659716667   0.441447899802099 1
ion Mo   0.416666670266667   0.083333326383333   0.558556097997901 1
ion Mo   0.333333336933333   0.166666659716667   0.441447899802099 1
ion Mo   0.666666670266667   0.083333326383333   0.558556097997901 1
ion Mo   0.583333336933333   0.166666659716667   0.441447899802099 1
ion Mo   0.916666670266667   0.083333326383333   0.558556097997901 1
ion Mo   0.833333336933333   0.166666659716667   0.441447899802099 1
ion Mo   0.166666670266667   0.333333326383333   0.558556097997901 1
ion Mo   0.083333336933333   0.416666659716667   0.441447899802099 1
ion Mo   0.416666670266667   0.333333326383333   0.558556097997901 1
ion Mo   0.333333336933333   0.416666659716667   0.441447899802099 1
ion Mo   0.666666670266667   0.333333326383333   0.558556097997901 1
ion Mo   0.583333336933333   0.416666659716667   0.441447899802099 1
ion Mo   0.916666670266667   0.333333326383333   0.558556097997901 1
ion Mo   0.833333336933333   0.416666659716667   0.441447899802099 1
ion Mo   0.166666670266667   0.583333326383333   0.558556097997901 1
ion Mo   0.083333336933333   0.666666659716667   0.441447899802099 1
ion Mo   0.416666670266667   0.583333326383333   0.558556097997901 1
ion Mo   0.333333336933333   0.666666659716667   0.441447899802099 1
ion Mo   0.666666670266667   0.583333326383333   0.558556097997901 1
ion Mo   0.583333336933333   0.666666659716667   0.441447899802099 1
ion Mo   0.916666670266667   0.583333326383333   0.558556097997901 1
ion Mo   0.833333336933333   0.666666659716667   0.441447899802099 1
ion Mo   0.166666670266667   0.833333326383333   0.558556097997901 1
ion Mo   0.083333336933333   0.916666659716667   0.441447899802099 1
ion Mo   0.416666670266667   0.833333326383333   0.558556097997901 1
ion Mo   0.333333336933333   0.916666659716667   0.441447899802099 1
ion Mo   0.666666670266667   0.833333326383333   0.558556097997901 1
ion Mo   0.583333336933333   0.916666659716667   0.441447899802099 1
ion Mo   0.916666670266667   0.833333326383333   0.558556097997901 1
ion Mo   0.833333336933333   0.916666659716667   0.441447899802099 1
ion C   0.000000003600000  -0.000000006950000   0.500001998900000 1
ion C   0.250000003600000  -0.000000006950000   0.500001998900000 1
ion C   0.500000003600000  -0.000000006950000   0.500001998900000 1
ion C   0.750000003600000  -0.000000006950000   0.500001998900000 1
ion C   0.000000003600000   0.249999993050000   0.500001998900000 1
ion C   0.250000003600000   0.249999993050000   0.500001998900000 1
ion C   0.500000003600000   0.249999993050000   0.500001998900000 1
ion C   0.750000003600000   0.249999993050000   0.500001998900000 1
ion C   0.000000003600000   0.499999993050000   0.500001998900000 1
ion C   0.250000003600000   0.499999993050000   0.500001998900000 1
ion C   0.500000003600000   0.499999993050000   0.500001998900000 1
ion C   0.750000003600000   0.499999993050000   0.500001998900000 1
ion C   0.000000003600000   0.749999993050000   0.500001998900000 1
ion C   0.250000003600000   0.749999993050000   0.500001998900000 1
ion C   0.500000003600000   0.749999993050000   0.500001998900000 1
ion C   0.750000003600000   0.749999993050000   0.500001998900000 1
ion O   0.083333336933333   0.166666659716667   0.616517487420202 1
ion O   0.166666670266667   0.083333326383333   0.383486510379798 1
ion O   0.333333336933333   0.166666659716667   0.616517487420202 1
ion O   0.416666670266667   0.083333326383333   0.383486510379798 1
ion O   0.583333336933333   0.166666659716667   0.616517487420202 1
ion O   0.666666670266667   0.083333326383333   0.383486510379798 1
ion O   0.833333336933333   0.166666659716667   0.616517487420202 1
ion O   0.916666670266667   0.083333326383333   0.383486510379798 1
ion O   0.083333336933333   0.416666659716667   0.616517487420202 1
ion O   0.166666670266667   0.333333326383333   0.383486510379798 1
ion O   0.333333336933333   0.416666659716667   0.616517487420202 1
ion O   0.416666670266667   0.333333326383333   0.383486510379798 1
ion O   0.583333336933333   0.416666659716667   0.616517487420202 1
ion O   0.666666670266667   0.333333326383333   0.383486510379798 1
ion O   0.833333336933333   0.416666659716667   0.616517487420202 1
ion O   0.916666670266667   0.333333326383333   0.383486510379798 1
ion O   0.083333336933333   0.666666659716667   0.616517487420202 1
ion O   0.166666670266667   0.583333326383333   0.383486510379798 1
ion O   0.333333336933333   0.666666659716667   0.616517487420202 1
ion O   0.416666670266667   0.583333326383333   0.383486510379798 1
ion O   0.583333336933333   0.666666659716667   0.616517487420202 1
ion O   0.666666670266667   0.583333326383333   0.383486510379798 1
ion O   0.833333336933333   0.666666659716667   0.616517487420202 1
ion O   0.916666670266667   0.583333326383333   0.383486510379798 1
ion O   0.083333336933333   0.916666659716667   0.616517487420202 1
ion O   0.166666670266667   0.833333326383333   0.383486510379798 1
ion O   0.333333336933333   0.916666659716667   0.616517487420202 1
ion O   0.416666670266667   0.833333326383333   0.383486510379798 1
ion O   0.583333336933333   0.916666659716667   0.616517487420202 1
ion O   0.666666670266667   0.833333326383333   0.383486510379798 1
ion O   0.833333336933333   0.916666659716667   0.616517487420202 1
ion O   0.916666670266667   0.833333326383333   0.383486510379798 1


# Forces in Lattice coordinates:
force Mo  -0.000000000000000  -0.000000000000000  -0.172062134621087 1
force Mo   0.000000000000000  -0.000000000000000   0.172062134622679 1
force Mo  -0.000000000000000  -0.000000000000000  -0.172062134621088 1
force Mo  -0.000000000000000   0.000000000000000   0.172062134622679 1
force Mo   0.000000000000000   0.000000000000000  -0.172062134621087 1
force Mo   0.000000000000000   0.000000000000000   0.172062134622679 1
force Mo  -0.000000000000000   0.000000000000000  -0.172062134621087 1
force Mo  -0.000000000000000   0.000000000000000   0.172062134622679 1
force Mo   0.000000000000000   0.000000000000000  -0.172062134621087 1
force Mo  -0.000000000000000  -0.000000000000000   0.172062134622679 1
force Mo   0.000000000000000  -0.000000000000000  -0.172062134621087 1
force Mo  -0.000000000000000  -0.000000000000000   0.172062134622678 1
force Mo  -0.000000000000000   0.000000000000000  -0.172062134621087 1
force Mo  -0.000000000000000   0.000000000000000   0.172062134622679 1
force Mo   0.000000000000000   0.000000000000000  -0.172062134621087 1
force Mo  -0.000000000000000   0.000000000000000   0.172062134622679 1
force Mo  -0.000000000000000  -0.000000000000000  -0.172062134621087 1
force Mo  -0.000000000000000   0.000000000000000   0.172062134622679 1
force Mo   0.000000000000000  -0.000000000000000  -0.172062134621087 1
force Mo   0.000000000000000  -0.000000000000000   0.172062134622679 1
force Mo  -0.000000000000000   0.000000000000000  -0.172062134621087 1
force Mo   0.000000000000000  -0.000000000000000   0.172062134622679 1
force Mo   0.000000000000000   0.000000000000000  -0.172062134621087 1
force Mo  -0.000000000000000  -0.000000000000000   0.172062134622679 1
force Mo   0.000000000000000   0.000000000000000  -0.172062134621087 1
force Mo  -0.000000000000000   0.000000000000000   0.172062134622679 1
force Mo  -0.000000000000000   0.000000000000000  -0.172062134621087 1
force Mo  -0.000000000000000   0.000000000000000   0.172062134622679 1
force Mo  -0.000000000000000   0.000000000000000  -0.172062134621087 1
force Mo   0.000000000000000  -0.000000000000000   0.172062134622679 1
force Mo   0.000000000000000  -0.000000000000000  -0.172062134621087 1
force Mo   0.000000000000000  -0.000000000000000   0.172062134622678 1
force C   0.000000000000000   0.000000000000000  -0.000000000000000 1
force C   0.000000000000000   0.000000000000000   0.000000000000000 1
force C   0.000000000000000   0.000000000000000   0.000000000000000 1
force C   0.000000000000000   0.000000000000000  -0.000000000000000 1
force C  -0.000000000000000  -0.000000000000000   0.000000000000000 1
force C   0.000000000000000  -0.000000000000000  -0.000000000000000 1
force C  -0.000000000000000   0.000000000000000   0.000000000000000 1
force C  -0.000000000000000  -0.000000000000000   0.000000000000000 1
force C   0.000000000000000   0.000000000000000   0.000000000000000 1
force C   0.000000000000000  -0.000000000000000   0.000000000000000 1
force C   0.000000000000000  -0.000000000000000  -0.000000000000000 1
force C   0.000000000000000   0.000000000000000  -0.000000000000000 1
force C   0.000000000000000   0.000000000000000  -0.000000000000000 1
force C  -0.000000000000000  -0.000000000000000  -0.000000000000000 1
force C  -0.000000000000000   0.000000000000000   0.000000000000000 1
force C   0.000000000000000  -0.000000000000000  -0.000000000000000 1
force O   0.000000000000000   0.000000000000000   0.124829909980004 1
force O   0.000000000000000   0.000000000000000  -0.124829909977727 1
force O  -0.000000000000000   0.000000000000000   0.124829909980456 1
force O   0.000000000000000  -0.000000000000000  -0.124829909978182 1
force O   0.000000000000000   0.000000000000000   0.124829909980456 1
force O  -0.000000000000000  -0.000000000000000  -0.124829909977727 1
force O  -0.000000000000000   0.000000000000000   0.124829909980456 1
force O   0.000000000000000  -0.000000000000000  -0.124829909977720 1
force O  -0.000000000000000   0.000000000000000   0.124829909980456 1
force O   0.000000000000000  -0.000000000000000  -0.124829909977727 1
force O  -0.000000000000000   0.000000000000000   0.124829909980004 1
force O   0.000000000000000  -0.000000000000000  -0.124829909978182 1
force O   0.000000000000000   0.000000000000000   0.124829909980001 1
force O  -0.000000000000000  -0.000000000000000  -0.124829909978633 1
force O   0.000000000000000   0.000000000000000   0.124829909980456 1
force O   0.000000000000000  -0.000000000000000  -0.124829909978182 1
force O   0.000000000000000  -0.000000000000000   0.124829909980001 1
force O   0.000000000000000  -0.000000000000000  -0.124829909978629 1
force O   0.000000000000000  -0.000000000000000   0.124829909980456 1
force O   0.000000000000000   0.000000000000000  -0.124829909977723 1
force O   0.000000000000000  -0.000000000000000   0.124829909980008 1
force O   0.000000000000000   0.000000000000000  -0.124829909978175 1
force O   0.000000000000000  -0.000000000000000   0.124829909980456 1
force O  -0.000000000000000   0.000000000000000  -0.124829909978178 1
force O   0.000000000000000  -0.000000000000000   0.124829909980001 1
force O   0.000000000000000   0.000000000000000  -0.124829909978178 1
force O  -0.000000000000000   0.000000000000000   0.124829909980456 1
force O   0.000000000000000  -0.000000000000000  -0.124829909978633 1
force O   0.000000000000000   0.000000000000000   0.124829909980459 1
force O   0.000000000000000  -0.000000000000000  -0.124829909977727 1
force O   0.000000000000000   0.000000000000000   0.124829909980459 1
force O  -0.000000000000000   0.000000000000000  -0.124829909978175 1

# Energy components:
   A_diel =       -0.1558513717906761
   Eewald =    28608.1972240998948109
       EH =    31002.0345587746305682
     Eloc =   -63244.0595616876089480
      Enl =      495.3294847209207887
      Exc =     -455.7440997114864558
 Exc_core =       41.6778461789883465
       KE =      755.8329858907782182
  MuShift =       -0.0206063195381389
-------------------------------------
     Etot =    -2796.9080194252073852
       TS =        0.1205865975358757
-------------------------------------
        F =    -2797.0286060227431335

IonicMinimize: Iter:   0  F: -2797.028606022743134  |grad|_K:  2.110e-03  t[s]:   2230.49

#--- Lowdin population analysis ---
# oxidation-state Mo +0.530 +0.530 +0.530 +0.530 +0.530 +0.530 +0.530 +0.530 +0.530 +0.530 +0.530 +0.530 +0.530 +0.530 +0.530 +0.530 +0.530 +0.530 +0.530 +0.530 +0.530 +0.530 +0.530 +0.530 +0.530 +0.530 +0.530 +0.530 +0.530 +0.530 +0.530 +0.530
# oxidation-state C -0.231 -0.231 -0.231 -0.231 -0.231 -0.231 -0.231 -0.231 -0.231 -0.231 -0.231 -0.231 -0.231 -0.231 -0.231 -0.231
# oxidation-state O -0.385 -0.385 -0.385 -0.385 -0.385 -0.385 -0.385 -0.385 -0.385 -0.385 -0.385 -0.385 -0.385 -0.385 -0.385 -0.385 -0.385 -0.385 -0.385 -0.385 -0.385 -0.385 -0.385 -0.385 -0.385 -0.385 -0.385 -0.385 -0.385 -0.385 -0.385 -0.385

	Linear fluid (dielectric constant: 78.4, screening length: 5.74355 Bohr) occupying 0.758128 of unit cell:	Completed after 10 iterations at t[s]:   2242.88

-------- Electronic minimization -----------
	Linear fluid (dielectric constant: 78.4, screening length: 5.74355 Bohr) occupying 0.758128 of unit cell:	Completed after 0 iterations at t[s]:   2252.37
	FillingsUpdate:  mu: -0.206292817  nElectrons: 705.000000
ElecMinimize: Iter:   0  F: -2797.028228076861524  |grad|_K:  2.614e-06  alpha:  1.000e+00
	Linear fluid (dielectric constant: 78.4, screening length: 5.74355 Bohr) occupying 0.758174 of unit cell:	Completed after 12 iterations at t[s]:   2277.33
	Linear fluid (dielectric constant: 78.4, screening length: 5.74355 Bohr) occupying 0.758166 of unit cell:	Completed after 10 iterations at t[s]:   2292.35
	FillingsUpdate:  mu: -0.202317771  nElectrons: 705.000000
	SubspaceRotationAdjust: set factor to 0.368
ElecMinimize: Iter:   1  F: -2797.028968322053515  |grad|_K:  2.594e-06  alpha:  8.169e-01  linmin: -2.081e-06  t[s]:   2307.99
	Linear fluid (dielectric constant: 78.4, screening length: 5.74355 Bohr) occupying 0.758169 of unit cell:	Completed after 12 iterations at t[s]:   2319.31
	Linear fluid (dielectric constant: 78.4, screening length: 5.74355 Bohr) occupying 0.758168 of unit cell:	Completed after 11 iterations at t[s]:   2333.70
	FillingsUpdate:  mu: -0.204537798  nElectrons: 705.000000
	SubspaceRotationAdjust: set factor to 0.343
ElecMinimize: Iter:   2  F: -2797.029402269509319  |grad|_K:  1.157e-06  alpha:  4.863e-01  linmin:  1.376e-06  t[s]:   2348.62
	Linear fluid (dielectric constant: 78.4, screening length: 5.74355 Bohr) occupying 0.758165 of unit cell:	Completed after 3 iterations at t[s]:   2357.95
	Linear fluid (dielectric constant: 78.4, screening length: 5.74355 Bohr) occupying 0.758165 of unit cell:	Completed after 2 iterations at t[s]:   2369.37
	FillingsUpdate:  mu: -0.204654808  nElectrons: 705.000000
	SubspaceRotationAdjust: set factor to 0.409
ElecMinimize: Iter:   3  F: -2797.029477846635018  |grad|_K:  4.615e-07  alpha:  4.259e-01  linmin: -8.815e-07  t[s]:   2382.85
	Linear fluid (dielectric constant: 78.4, screening length: 5.74355 Bohr) occupying 0.758163 of unit cell:	Completed after 3 iterations at t[s]:   2392.36
	Linear fluid (dielectric constant: 78.4, screening length: 5.74355 Bohr) occupying 0.758162 of unit cell:	Completed after 0 iterations at t[s]:   2403.64
	FillingsUpdate:  mu: -0.204680631  nElectrons: 705.000000
	SubspaceRotationAdjust: set factor to 0.453
ElecMinimize: Iter:   4  F: -2797.029490495570826  |grad|_K:  2.303e-07  alpha:  4.473e-01  linmin: -1.313e-05  t[s]:   2417.00
	Linear fluid (dielectric constant: 78.4, screening length: 5.74355 Bohr) occupying 0.758160 of unit cell:	Completed after 2 iterations at t[s]:   2425.99
	Linear fluid (dielectric constant: 78.4, screening length: 5.74355 Bohr) occupying 0.758160 of unit cell:	Completed after 0 iterations at t[s]:   2437.79
	FillingsUpdate:  mu: -0.204654115  nElectrons: 705.000000
	SubspaceRotationAdjust: set factor to 0.546
ElecMinimize: Iter:   5  F: -2797.029492905647658  |grad|_K:  1.123e-07  alpha:  3.366e-01  linmin:  2.328e-05  t[s]:   2450.79
	Linear fluid (dielectric constant: 78.4, screening length: 5.74355 Bohr) occupying 0.758159 of unit cell:	Completed after 0 iterations at t[s]:   2459.43
	Linear fluid (dielectric constant: 78.4, screening length: 5.74355 Bohr) occupying 0.758158 of unit cell:	Completed after 1 iterations at t[s]:   2470.65
	FillingsUpdate:  mu: -0.204661493  nElectrons: 705.000000
	SubspaceRotationAdjust: set factor to 0.672
ElecMinimize: Iter:   6  F: -2797.029493582852410  |grad|_K:  8.012e-08  alpha:  4.773e-01  linmin:  1.517e-05  t[s]:   2484.44
	Linear fluid (dielectric constant: 78.4, screening length: 5.74355 Bohr) occupying 0.758155 of unit cell:	Completed after 0 iterations at t[s]:   2493.24
	Linear fluid (dielectric constant: 78.4, screening length: 5.74355 Bohr) occupying 0.758156 of unit cell:	Completed after 0 iterations at t[s]:   2504.08
	FillingsUpdate:  mu: -0.204663351  nElectrons: 705.000000
	SubspaceRotationAdjust: set factor to 0.889
ElecMinimize: Iter:   7  F: -2797.029493891367565  |grad|_K:  4.553e-08  alpha:  4.006e-01  linmin: -2.295e-06  t[s]:   2517.16
	Linear fluid (dielectric constant: 78.4, screening length: 5.74355 Bohr) occupying 0.758154 of unit cell:	Completed after 1 iterations at t[s]:   2525.99
	Linear fluid (dielectric constant: 78.4, screening length: 5.74355 Bohr) occupying 0.758154 of unit cell:	Completed after 0 iterations at t[s]:   2536.99
	FillingsUpdate:  mu: -0.204682656  nElectrons: 705.000000
	SubspaceRotationAdjust: set factor to 1.13
ElecMinimize: Iter:   8  F: -2797.029493963335881  |grad|_K:  2.516e-08  alpha:  2.997e-01  linmin: -8.458e-06  t[s]:   2549.94
	Linear fluid (dielectric constant: 78.4, screening length: 5.74355 Bohr) occupying 0.758154 of unit cell:	Completed after 0 iterations at t[s]:   2558.70
	Linear fluid (dielectric constant: 78.4, screening length: 5.74355 Bohr) occupying 0.758153 of unit cell:	Completed after 0 iterations at t[s]:   2569.23
	FillingsUpdate:  mu: -0.204682577  nElectrons: 705.000000
	SubspaceRotationAdjust: set factor to 1.27
ElecMinimize: Iter:   9  F: -2797.029494007556877  |grad|_K:  1.660e-08  alpha:  4.523e-01  linmin: -2.108e-07  t[s]:   2582.49
	Linear fluid (dielectric constant: 78.4, screening length: 5.74355 Bohr) occupying 0.758153 of unit cell:	Completed after 0 iterations at t[s]:   2591.11
	Linear fluid (dielectric constant: 78.4, screening length: 5.74355 Bohr) occupying 0.758153 of unit cell:	Completed after 0 iterations at t[s]:   2601.93
	FillingsUpdate:  mu: -0.204682548  nElectrons: 705.000000
	SubspaceRotationAdjust: set factor to 1.36
ElecMinimize: Iter:  10  F: -2797.029494017860088  |grad|_K:  8.169e-09  alpha:  2.798e-01  linmin:  4.420e-08  t[s]:   2615.01
	Linear fluid (dielectric constant: 78.4, screening length: 5.74355 Bohr) occupying 0.758153 of unit cell:	Completed after 0 iterations at t[s]:   2623.98
	Linear fluid (dielectric constant: 78.4, screening length: 5.74355 Bohr) occupying 0.758153 of unit cell:	Completed after 0 iterations at t[s]:   2634.65
	FillingsUpdate:  mu: -0.204682608  nElectrons: 705.000000
	SubspaceRotationAdjust: set factor to 1.49
ElecMinimize: Iter:  11  F: -2797.029494021404844  |grad|_K:  5.308e-09  alpha:  4.254e-01  linmin:  4.941e-07  t[s]:   2648.07
	Linear fluid (dielectric constant: 78.4, screening length: 5.74355 Bohr) occupying 0.758153 of unit cell:	Completed after 0 iterations at t[s]:   2656.97
	Linear fluid (dielectric constant: 78.4, screening length: 5.74355 Bohr) occupying 0.758153 of unit cell:	Completed after 0 iterations at t[s]:   2668.22
	FillingsUpdate:  mu: -0.204682684  nElectrons: 705.000000
	SubspaceRotationAdjust: set factor to 1.76
ElecMinimize: Iter:  12  F: -2797.029494022788640  |grad|_K:  3.719e-09  alpha:  3.867e-01  linmin:  3.744e-07  t[s]:   2681.68
ElecMinimize: Converged (|Delta F|<1.000000e-08 for 2 iters).
Setting wave functions to eigenvectors of Hamiltonian

# Ionic positions in lattice coordinates:
ion Mo   0.166666670266667   0.083333326383333   0.558428964984952 1
ion Mo   0.083333336933333   0.166666659716667   0.441575032815048 1
ion Mo   0.416666670266667   0.083333326383333   0.558428964984952 1
ion Mo   0.333333336933333   0.166666659716667   0.441575032815048 1
ion Mo   0.666666670266667   0.083333326383333   0.558428964984952 1
ion Mo   0.583333336933333   0.166666659716667   0.441575032815048 1
ion Mo   0.916666670266667   0.083333326383333   0.558428964984952 1
ion Mo   0.833333336933333   0.166666659716667   0.441575032815048 1
ion Mo   0.166666670266667   0.333333326383333   0.558428964984952 1
ion Mo   0.083333336933333   0.416666659716667   0.441575032815048 1
ion Mo   0.416666670266667   0.333333326383333   0.558428964984952 1
ion Mo   0.333333336933333   0.416666659716667   0.441575032815048 1
ion Mo   0.666666670266667   0.333333326383333   0.558428964984952 1
ion Mo   0.583333336933333   0.416666659716667   0.441575032815048 1
ion Mo   0.916666670266667   0.333333326383333   0.558428964984952 1
ion Mo   0.833333336933333   0.416666659716667   0.441575032815048 1
ion Mo   0.166666670266667   0.583333326383333   0.558428964984952 1
ion Mo   0.083333336933333   0.666666659716667   0.441575032815048 1
ion Mo   0.416666670266667   0.583333326383333   0.558428964984952 1
ion Mo   0.333333336933333   0.666666659716667   0.441575032815048 1
ion Mo   0.666666670266667   0.583333326383333   0.558428964984952 1
ion Mo   0.583333336933333   0.666666659716667   0.441575032815048 1
ion Mo   0.916666670266667   0.583333326383333   0.558428964984952 1
ion Mo   0.833333336933333   0.666666659716667   0.441575032815048 1
ion Mo   0.166666670266667   0.833333326383333   0.558428964984952 1
ion Mo   0.083333336933333   0.916666659716667   0.441575032815048 1
ion Mo   0.416666670266667   0.833333326383333   0.558428964984952 1
ion Mo   0.333333336933333   0.916666659716667   0.441575032815048 1
ion Mo   0.666666670266667   0.833333326383333   0.558428964984952 1
ion Mo   0.583333336933333   0.916666659716667   0.441575032815048 1
ion Mo   0.916666670266667   0.833333326383333   0.558428964984952 1
ion Mo   0.833333336933333   0.916666659716667   0.441575032815048 1
ion C   0.000000003600000  -0.000000006950000   0.500001998900000 1
ion C   0.250000003600000  -0.000000006950000   0.500001998900000 1
ion C   0.500000003600000  -0.000000006950000   0.500001998900000 1
ion C   0.750000003600000  -0.000000006950000   0.500001998900000 1
ion C   0.000000003600000   0.249999993050000   0.500001998900000 1
ion C   0.250000003600000   0.249999993050000   0.500001998900000 1
ion C   0.500000003600000   0.249999993050000   0.500001998900000 1
ion C   0.750000003600000   0.249999993050000   0.500001998900000 1
ion C   0.000000003600000   0.499999993050000   0.500001998900000 1
ion C   0.250000003600000   0.499999993050000   0.500001998900000 1
ion C   0.500000003600000   0.499999993050000   0.500001998900000 1
ion C   0.750000003600000   0.499999993050000   0.500001998900000 1
ion C   0.000000003600000   0.749999993050000   0.500001998900000 1
ion C   0.250000003600000   0.749999993050000   0.500001998900000 1
ion C   0.500000003600000   0.749999993050000   0.500001998900000 1
ion C   0.750000003600000   0.749999993050000   0.500001998900000 1
ion O   0.083333336933333   0.166666659716667   0.616609721557577 1
ion O   0.166666670266667   0.083333326383333   0.383394276242423 1
ion O   0.333333336933333   0.166666659716667   0.616609721557577 1
ion O   0.416666670266667   0.083333326383333   0.383394276242423 1
ion O   0.583333336933333   0.166666659716667   0.616609721557577 1
ion O   0.666666670266667   0.083333326383333   0.383394276242423 1
ion O   0.833333336933333   0.166666659716667   0.616609721557577 1
ion O   0.916666670266667   0.083333326383333   0.383394276242423 1
ion O   0.083333336933333   0.416666659716667   0.616609721557577 1
ion O   0.166666670266667   0.333333326383333   0.383394276242423 1
ion O   0.333333336933333   0.416666659716667   0.616609721557577 1
ion O   0.416666670266667   0.333333326383333   0.383394276242423 1
ion O   0.583333336933333   0.416666659716667   0.616609721557577 1
ion O   0.666666670266667   0.333333326383333   0.383394276242423 1
ion O   0.833333336933333   0.416666659716667   0.616609721557577 1
ion O   0.916666670266667   0.333333326383333   0.383394276242423 1
ion O   0.083333336933333   0.666666659716667   0.616609721557577 1
ion O   0.166666670266667   0.583333326383333   0.383394276242423 1
ion O   0.333333336933333   0.666666659716667   0.616609721557577 1
ion O   0.416666670266667   0.583333326383333   0.383394276242423 1
ion O   0.583333336933333   0.666666659716667   0.616609721557577 1
ion O   0.666666670266667   0.583333326383333   0.383394276242423 1
ion O   0.833333336933333   0.666666659716667   0.616609721557577 1
ion O   0.916666670266667   0.583333326383333   0.383394276242423 1
ion O   0.083333336933333   0.916666659716667   0.616609721557577 1
ion O   0.166666670266667   0.833333326383333   0.383394276242423 1
ion O   0.333333336933333   0.916666659716667   0.616609721557577 1
ion O   0.416666670266667   0.833333326383333   0.383394276242423 1
ion O   0.583333336933333   0.916666659716667   0.616609721557577 1
ion O   0.666666670266667   0.833333326383333   0.383394276242423 1
ion O   0.833333336933333   0.916666659716667   0.616609721557577 1
ion O   0.916666670266667   0.833333326383333   0.383394276242423 1


# Forces in Lattice coordinates:
force Mo  -0.000000000000000   0.000000000000000  -0.110851500138351 1
force Mo   0.000000000000000  -0.000000000000000   0.110851500139715 1
force Mo  -0.000000000000000   0.000000000000000  -0.110851500139033 1
force Mo   0.000000000000000  -0.000000000000000   0.110851500139942 1
force Mo  -0.000000000000000   0.000000000000000  -0.110851500138805 1
force Mo  -0.000000000000000  -0.000000000000000   0.110851500139715 1
force Mo  -0.000000000000000   0.000000000000000  -0.110851500138351 1
force Mo   0.000000000000000  -0.000000000000000   0.110851500139260 1
force Mo   0.000000000000000  -0.000000000000000  -0.110851500138351 1
force Mo   0.000000000000000  -0.000000000000000   0.110851500139487 1
force Mo   0.000000000000000  -0.000000000000000  -0.110851500138806 1
force Mo  -0.000000000000000  -0.000000000000000   0.110851500139942 1
force Mo  -0.000000000000000   0.000000000000000  -0.110851500138805 1
force Mo   0.000000000000000   0.000000000000000   0.110851500139715 1
force Mo  -0.000000000000000   0.000000000000000  -0.110851500138350 1
force Mo   0.000000000000000  -0.000000000000000   0.110851500139260 1
force Mo  -0.000000000000000  -0.000000000000000  -0.110851500138350 1
force Mo   0.000000000000000   0.000000000000000   0.110851500139715 1
force Mo  -0.000000000000000   0.000000000000000  -0.110851500138805 1
force Mo  -0.000000000000000   0.000000000000000   0.110851500139488 1
force Mo   0.000000000000000  -0.000000000000000  -0.110851500138805 1
force Mo  -0.000000000000000  -0.000000000000000   0.110851500139715 1
force Mo  -0.000000000000000   0.000000000000000  -0.110851500138351 1
force Mo   0.000000000000000   0.000000000000000   0.110851500139260 1
force Mo  -0.000000000000000   0.000000000000000  -0.110851500138806 1
force Mo  -0.000000000000000   0.000000000000000   0.110851500139260 1
force Mo   0.000000000000000   0.000000000000000  -0.110851500138805 1
force Mo   0.000000000000000   0.000000000000000   0.110851500139715 1
force Mo  -0.000000000000000   0.000000000000000  -0.110851500139033 1
force Mo  -0.000000000000000  -0.000000000000000   0.110851500139488 1
force Mo  -0.000000000000000   0.000000000000000  -0.110851500138805 1
force Mo   0.000000000000000  -0.000000000000000   0.110851500139260 1
force C  -0.000000000000000   0.000000000000000  -0.000000000000000 1
force C  -0.000000000000000  -0.000000000000000  -0.000000000000000 1
force C   0.000000000000000  -0.000000000000000   0.000000000000000 1
force C   0.000000000000000   0.000000000000000   0.000000000000000 1
force C   0.000000000000000   0.000000000000000  -0.000000000000000 1
force C   0.000000000000000  -0.000000000000000  -0.000000000000000 1
force C  -0.000000000000000   0.000000000000000  -0.000000000000000 1
force C  -0.000000000000000   0.000000000000000   0.000000000000000 1
force C   0.000000000000000   0.000000000000000   0.000000000000000 1
force C   0.000000000000000  -0.000000000000000  -0.000000000000000 1
force C  -0.000000000000000   0.000000000000000  -0.000000000000000 1
force C   0.000000000000000   0.000000000000000  -0.000000000000000 1
force C   0.000000000000000   0.000000000000000   0.000000000000000 1
force C   0.000000000000000  -0.000000000000000   0.000000000000000 1
force C  -0.000000000000000  -0.000000000000000   0.000000000000000 1
force C  -0.000000000000000   0.000000000000000   0.000000000000000 1
force O  -0.000000000000000  -0.000000000000000   0.085918425439885 1
force O  -0.000000000000000   0.000000000000000  -0.085918425437839 1
force O   0.000000000000000   0.000000000000000   0.085918425439882 1
force O   0.000000000000000  -0.000000000000000  -0.085918425438070 1
force O  -0.000000000000000  -0.000000000000000   0.085918425439658 1
force O  -0.000000000000000   0.000000000000000  -0.085918425438521 1
force O   0.000000000000000  -0.000000000000000   0.085918425439431 1
force O   0.000000000000000   0.000000000000000  -0.085918425438066 1
force O  -0.000000000000000  -0.000000000000000   0.085918425439658 1
force O   0.000000000000000   0.000000000000000  -0.085918425437836 1
force O   0.000000000000000  -0.000000000000000   0.085918425439655 1
force O   0.000000000000000   0.000000000000000  -0.085918425437836 1
force O  -0.000000000000000   0.000000000000000   0.085918425439427 1
force O   0.000000000000000   0.000000000000000  -0.085918425438066 1
force O   0.000000000000000  -0.000000000000000   0.085918425439885 1
force O   0.000000000000000   0.000000000000000  -0.085918425438066 1
force O  -0.000000000000000   0.000000000000000   0.085918425439658 1
force O  -0.000000000000000  -0.000000000000000  -0.085918425438066 1
force O   0.000000000000000   0.000000000000000   0.085918425439885 1
force O  -0.000000000000000   0.000000000000000  -0.085918425438063 1
force O   0.000000000000000   0.000000000000000   0.085918425439655 1
force O   0.000000000000000   0.000000000000000  -0.085918425437836 1
force O  -0.000000000000000  -0.000000000000000   0.085918425439655 1
force O   0.000000000000000  -0.000000000000000  -0.085918425437836 1
force O  -0.000000000000000  -0.000000000000000   0.085918425439878 1
force O  -0.000000000000000  -0.000000000000000  -0.085918425438066 1
force O   0.000000000000000  -0.000000000000000   0.085918425439658 1
force O  -0.000000000000000  -0.000000000000000  -0.085918425438521 1
force O   0.000000000000000  -0.000000000000000   0.085918425439658 1
force O   0.000000000000000   0.000000000000000  -0.085918425438521 1
force O   0.000000000000000   0.000000000000000   0.085918425439431 1
force O  -0.000000000000000   0.000000000000000  -0.085918425438066 1

# Energy components:
   A_diel =       -0.1558788202059955
   Eewald =    28610.9844073938111251
       EH =    31004.3208602436243382
     Eloc =   -63249.0868260077622836
      Enl =      495.3033358501338626
      Exc =     -455.7304582209307000
 Exc_core =       41.6778332003147156
       KE =      755.7964925327887613
[...]
	SubspaceRotationAdjust: set factor to 0.776
ElecMinimize: Iter:   8  F: -2797.030185034543138  |grad|_K:  4.214e-08  alpha:  4.698e-01  linmin:  7.621e-08  t[s]:   3020.90
	Linear fluid (dielectric constant: 78.4, screening length: 5.74355 Bohr) occupying 0.758021 of unit cell:	Completed after 1 iterations at t[s]:   3029.81
	Linear fluid (dielectric constant: 78.4, screening length: 5.74355 Bohr) occupying 0.758021 of unit cell:	Completed after 0 iterations at t[s]:   3040.99
	FillingsUpdate:  mu: -0.206699746  nElectrons: 705.000000
	SubspaceRotationAdjust: set factor to 0.804
ElecMinimize: Iter:   9  F: -2797.030185079902367  |grad|_K:  2.935e-08  alpha:  2.608e-01  linmin: -1.897e-06  t[s]:   3053.81
	Linear fluid (dielectric constant: 78.4, screening length: 5.74355 Bohr) occupying 0.758021 of unit cell:	Completed after 0 iterations at t[s]:   3062.76
	Linear fluid (dielectric constant: 78.4, screening length: 5.74355 Bohr) occupying 0.758022 of unit cell:	Completed after 0 iterations at t[s]:   3073.69
	FillingsUpdate:  mu: -0.206699664  nElectrons: 705.000000
	SubspaceRotationAdjust: set factor to 0.978
ElecMinimize: Iter:  10  F: -2797.030185123517185  |grad|_K:  2.563e-08  alpha:  3.660e-01  linmin:  1.459e-07  t[s]:   3086.91
	Linear fluid (dielectric constant: 78.4, screening length: 5.74355 Bohr) occupying 0.758022 of unit cell:	Completed after 0 iterations at t[s]:   3096.09
	Linear fluid (dielectric constant: 78.4, screening length: 5.74355 Bohr) occupying 0.758022 of unit cell:	Completed after 0 iterations at t[s]:   3106.88
	FillingsUpdate:  mu: -0.206698357  nElectrons: 705.000000
	SubspaceRotationAdjust: set factor to 1.23
ElecMinimize: Iter:  11  F: -2797.030185133485247  |grad|_K:  1.630e-08  alpha:  2.059e-01  linmin: -2.908e-06  t[s]:   3119.95
	Linear fluid (dielectric constant: 78.4, screening length: 5.74355 Bohr) occupying 0.758022 of unit cell:	Completed after 0 iterations at t[s]:   3128.66
	Linear fluid (dielectric constant: 78.4, screening length: 5.74355 Bohr) occupying 0.758022 of unit cell:	Completed after 0 iterations at t[s]:   3139.32
	FillingsUpdate:  mu: -0.206698170  nElectrons: 705.000000
	SubspaceRotationAdjust: set factor to 1.45
ElecMinimize: Iter:  12  F: -2797.030185144919869  |grad|_K:  1.426e-08  alpha:  2.776e-01  linmin:  8.166e-08  t[s]:   3152.28
	Linear fluid (dielectric constant: 78.4, screening length: 5.74355 Bohr) occupying 0.758022 of unit cell:	Completed after 1 iterations at t[s]:   3161.16
	Linear fluid (dielectric constant: 78.4, screening length: 5.74355 Bohr) occupying 0.758022 of unit cell:	Completed after 0 iterations at t[s]:   3172.28
ElecMinimize: 	Step increased F by 3.562036e-08, reducing alpha to 2.442389e-03.
	Linear fluid (dielectric constant: 78.4, screening length: 5.74355 Bohr) occupying 0.758022 of unit cell:	Completed after 0 iterations at t[s]:   3192.61
ElecMinimize: 	Step increased F by 3.323521e-08, reducing alpha to 2.442389e-04.
	Linear fluid (dielectric constant: 78.4, screening length: 5.74355 Bohr) occupying 0.758022 of unit cell:	Completed after 0 iterations at t[s]:   3213.00
ElecMinimize: 	Step increased F by 3.296827e-08, reducing alpha to 2.442389e-05.
ElecMinimize: 	Step failed to reduce F after 3 attempts. Quitting step.
ElecMinimize: 	Undoing step.
	Linear fluid (dielectric constant: 78.4, screening length: 5.74355 Bohr) occupying 0.758022 of unit cell:	Completed after 0 iterations at t[s]:   3233.48
ElecMinimize: 	Step failed: resetting search direction.
	FillingsUpdate:  mu: -0.206709286  nElectrons: 705.000000
	SubspaceRotationAdjust: set factor to 1.01
ElecMinimize: Iter:  13  F: -2797.030185111898845  |grad|_K:  4.631e-08  alpha:  2.442e-05
	Linear fluid (dielectric constant: 78.4, screening length: 5.74355 Bohr) occupying 0.758022 of unit cell:	Completed after 2 iterations at t[s]:   3255.95
	Linear fluid (dielectric constant: 78.4, screening length: 5.74355 Bohr) occupying 0.758022 of unit cell:	Completed after 0 iterations at t[s]:   3267.10
	FillingsUpdate:  mu: -0.206682748  nElectrons: 705.000000
	SubspaceRotationAdjust: set factor to 0.472
ElecMinimize: Iter:  14  F: -2797.030185160591373  |grad|_K:  3.260e-08  alpha:  1.262e-01  linmin:  6.575e-05  t[s]:   3280.18
	Linear fluid (dielectric constant: 78.4, screening length: 5.74355 Bohr) occupying 0.758022 of unit cell:	Completed after 0 iterations at t[s]:   3289.30
	Linear fluid (dielectric constant: 78.4, screening length: 5.74355 Bohr) occupying 0.758022 of unit cell:	Completed after 0 iterations at t[s]:   3300.45
ElecMinimize: 	Step increased F by 4.890808e-09, reducing alpha to 6.233718e-03.
	Linear fluid (dielectric constant: 78.4, screening length: 5.74355 Bohr) occupying 0.758022 of unit cell:	Completed after 0 iterations at t[s]:   3320.38
ElecMinimize: 	Step increased F by 9.660198e-09, reducing alpha to 6.233718e-04.
	Linear fluid (dielectric constant: 78.4, screening length: 5.74355 Bohr) occupying 0.758022 of unit cell:	Completed after 0 iterations at t[s]:   3340.22
ElecMinimize: 	Step increased F by 1.020499e-08, reducing alpha to 6.233718e-05.
ElecMinimize: 	Step failed to reduce F after 3 attempts. Quitting step.
ElecMinimize: 	Undoing step.
	Linear fluid (dielectric constant: 78.4, screening length: 5.74355 Bohr) occupying 0.758022 of unit cell:	Completed after 0 iterations at t[s]:   3360.18
ElecMinimize: 	Step failed: resetting search direction.
	FillingsUpdate:  mu: -0.206683669  nElectrons: 705.000000
	SubspaceRotationAdjust: set factor to 0.379
ElecMinimize: Iter:  15  F: -2797.030185150435045  |grad|_K:  2.270e-08  alpha:  6.234e-05
	Linear fluid (dielectric constant: 78.4, screening length: 5.74355 Bohr) occupying 0.758022 of unit cell:	Completed after 0 iterations at t[s]:   3382.13
ElecMinimize: 	Predicted alpha/alphaT>3.000000, increasing alphaT to 3.785320e-01.
	Linear fluid (dielectric constant: 78.4, screening length: 5.74355 Bohr) occupying 0.758022 of unit cell:	Completed after 1 iterations at t[s]:   3392.76
	Linear fluid (dielectric constant: 78.4, screening length: 5.74355 Bohr) occupying 0.758022 of unit cell:	Completed after 0 iterations at t[s]:   3403.86
ElecMinimize: 	Step increased F by 7.980361e-09, reducing alpha to 1.267794e-02.
	Linear fluid (dielectric constant: 78.4, screening length: 5.74355 Bohr) occupying 0.758022 of unit cell:	Completed after 0 iterations at t[s]:   3424.14
ElecMinimize: 	Step increased F by 2.150500e-09, reducing alpha to 1.267794e-03.
	Linear fluid (dielectric constant: 78.4, screening length: 5.74355 Bohr) occupying 0.758022 of unit cell:	Completed after 0 iterations at t[s]:   3444.34
ElecMinimize: 	Step increased F by 1.594799e-09, reducing alpha to 1.267794e-04.
ElecMinimize: 	Step failed to reduce F after 3 attempts. Quitting step.
ElecMinimize: 	Undoing step.
	Linear fluid (dielectric constant: 78.4, screening length: 5.74355 Bohr) occupying 0.758022 of unit cell:	Completed after 0 iterations at t[s]:   3465.22
ElecMinimize: 	Step failed along negative gradient direction.
ElecMinimize: Probably at roundoff error limit. (Stopping)
Setting wave functions to eigenvectors of Hamiltonian

# Ionic positions in lattice coordinates:
ion Mo   0.166666670266667   0.083333326383333   0.558197972354688 1
ion Mo   0.083333336933333   0.166666659716667   0.441806025445312 1
ion Mo   0.416666670266667   0.083333326383333   0.558197972354688 1
ion Mo   0.333333336933333   0.166666659716667   0.441806025445312 1
ion Mo   0.666666670266667   0.083333326383333   0.558197972354688 1
ion Mo   0.583333336933333   0.166666659716667   0.441806025445312 1
ion Mo   0.916666670266667   0.083333326383333   0.558197972354688 1
ion Mo   0.833333336933333   0.166666659716667   0.441806025445312 1
ion Mo   0.166666670266667   0.333333326383333   0.558197972354688 1
ion Mo   0.083333336933333   0.416666659716667   0.441806025445312 1
ion Mo   0.416666670266667   0.333333326383333   0.558197972354688 1
ion Mo   0.333333336933333   0.416666659716667   0.441806025445312 1
ion Mo   0.666666670266667   0.333333326383333   0.558197972354688 1
ion Mo   0.583333336933333   0.416666659716667   0.441806025445312 1
ion Mo   0.916666670266667   0.333333326383333   0.558197972354688 1
ion Mo   0.833333336933333   0.416666659716667   0.441806025445312 1
ion Mo   0.166666670266667   0.583333326383333   0.558197972354688 1
ion Mo   0.083333336933333   0.666666659716667   0.441806025445312 1
ion Mo   0.416666670266667   0.583333326383333   0.558197972354688 1
ion Mo   0.333333336933333   0.666666659716667   0.441806025445312 1
ion Mo   0.666666670266667   0.583333326383333   0.558197972354688 1
ion Mo   0.583333336933333   0.666666659716667   0.441806025445312 1
ion Mo   0.916666670266667   0.583333326383333   0.558197972354688 1
ion Mo   0.833333336933333   0.666666659716667   0.441806025445312 1
ion Mo   0.166666670266667   0.833333326383333   0.558197972354688 1
ion Mo   0.083333336933333   0.916666659716667   0.441806025445312 1
ion Mo   0.416666670266667   0.833333326383333   0.558197972354688 1
ion Mo   0.333333336933333   0.916666659716667   0.441806025445312 1
ion Mo   0.666666670266667   0.833333326383333   0.558197972354688 1
ion Mo   0.583333336933333   0.916666659716667   0.441806025445312 1
ion Mo   0.916666670266667   0.833333326383333   0.558197972354688 1
ion Mo   0.833333336933333   0.916666659716667   0.441806025445312 1
ion C   0.000000003600000  -0.000000006950000   0.500001998900000 1
ion C   0.250000003600000  -0.000000006950000   0.500001998900000 1
ion C   0.500000003600000  -0.000000006950000   0.500001998900000 1
ion C   0.750000003600000  -0.000000006950000   0.500001998900000 1
ion C   0.000000003600000   0.249999993050000   0.500001998900000 1
ion C   0.250000003600000   0.249999993050000   0.500001998900000 1
ion C   0.500000003600000   0.249999993050000   0.500001998900000 1
ion C   0.750000003600000   0.249999993050000   0.500001998900000 1
ion C   0.000000003600000   0.499999993050000   0.500001998900000 1
ion C   0.250000003600000   0.499999993050000   0.500001998900000 1
ion C   0.500000003600000   0.499999993050000   0.500001998900000 1
ion C   0.750000003600000   0.499999993050000   0.500001998900000 1
ion C   0.000000003600000   0.749999993050000   0.500001998900000 1
ion C   0.250000003600000   0.749999993050000   0.500001998900000 1
ion C   0.500000003600000   0.749999993050000   0.500001998900000 1
ion C   0.750000003600000   0.749999993050000   0.500001998900000 1
ion O   0.083333336933333   0.166666659716667   0.616812188559067 1
ion O   0.166666670266667   0.083333326383333   0.383191809240933 1
ion O   0.333333336933333   0.166666659716667   0.616812188559067 1
ion O   0.416666670266667   0.083333326383333   0.383191809240933 1
ion O   0.583333336933333   0.166666659716667   0.616812188559067 1
ion O   0.666666670266667   0.083333326383333   0.383191809240933 1
ion O   0.833333336933333   0.166666659716667   0.616812188559067 1
ion O   0.916666670266667   0.083333326383333   0.383191809240933 1
ion O   0.083333336933333   0.416666659716667   0.616812188559067 1
ion O   0.166666670266667   0.333333326383333   0.383191809240933 1
ion O   0.333333336933333   0.416666659716667   0.616812188559067 1
ion O   0.416666670266667   0.333333326383333   0.383191809240933 1
ion O   0.583333336933333   0.416666659716667   0.616812188559067 1
ion O   0.666666670266667   0.333333326383333   0.383191809240933 1
ion O   0.833333336933333   0.416666659716667   0.616812188559067 1
ion O   0.916666670266667   0.333333326383333   0.383191809240933 1
ion O   0.083333336933333   0.666666659716667   0.616812188559067 1
ion O   0.166666670266667   0.583333326383333   0.383191809240933 1
ion O   0.333333336933333   0.666666659716667   0.616812188559067 1
ion O   0.416666670266667   0.583333326383333   0.383191809240933 1
ion O   0.583333336933333   0.666666659716667   0.616812188559067 1
ion O   0.666666670266667   0.583333326383333   0.383191809240933 1
ion O   0.833333336933333   0.666666659716667   0.616812188559067 1
ion O   0.916666670266667   0.583333326383333   0.383191809240933 1
ion O   0.083333336933333   0.916666659716667   0.616812188559067 1
ion O   0.166666670266667   0.833333326383333   0.383191809240933 1
ion O   0.333333336933333   0.916666659716667   0.616812188559067 1
ion O   0.416666670266667   0.833333326383333   0.383191809240933 1
ion O   0.583333336933333   0.916666659716667   0.616812188559067 1
ion O   0.666666670266667   0.833333326383333   0.383191809240933 1
ion O   0.833333336933333   0.916666659716667   0.616812188559067 1
ion O   0.916666670266667   0.833333326383333   0.383191809240933 1


# Forces in Lattice coordinates:
force Mo  -0.000000000000000  -0.000000000000000   0.005711267610257 1
force Mo  -0.000000000000000   0.000000000000000  -0.005711267607075 1
force Mo  -0.000000000000000  -0.000000000000000   0.005711267610257 1
force Mo  -0.000000000000000   0.000000000000000  -0.005711267607075 1
force Mo   0.000000000000000  -0.000000000000000   0.005711267610257 1
force Mo   0.000000000000000   0.000000000000000  -0.005711267607075 1
force Mo   0.000000000000000  -0.000000000000000   0.005711267609802 1
force Mo   0.000000000000000   0.000000000000000  -0.005711267607075 1
force Mo  -0.000000000000000  -0.000000000000000   0.005711267610257 1
force Mo  -0.000000000000000   0.000000000000000  -0.005711267607076 1
force Mo   0.000000000000000  -0.000000000000000   0.005711267610257 1
force Mo  -0.000000000000000  -0.000000000000000  -0.005711267607075 1
force Mo   0.000000000000000   0.000000000000000   0.005711267610257 1
force Mo  -0.000000000000000  -0.000000000000000  -0.005711267607075 1
force Mo   0.000000000000000   0.000000000000000   0.005711267610257 1
force Mo   0.000000000000000  -0.000000000000000  -0.005711267607075 1
force Mo   0.000000000000000   0.000000000000000   0.005711267610257 1
force Mo   0.000000000000000   0.000000000000000  -0.005711267607075 1
force Mo  -0.000000000000000  -0.000000000000000   0.005711267610257 1
force Mo   0.000000000000000  -0.000000000000000  -0.005711267607075 1
force Mo   0.000000000000000   0.000000000000000   0.005711267610257 1
force Mo   0.000000000000000   0.000000000000000  -0.005711267607075 1
force Mo   0.000000000000000  -0.000000000000000   0.005711267609802 1
force Mo   0.000000000000000   0.000000000000000  -0.005711267607075 1
force Mo  -0.000000000000000  -0.000000000000000   0.005711267610257 1
force Mo  -0.000000000000000   0.000000000000000  -0.005711267607075 1
force Mo   0.000000000000000  -0.000000000000000   0.005711267610257 1
force Mo  -0.000000000000000   0.000000000000000  -0.005711267607075 1
force Mo   0.000000000000000   0.000000000000000   0.005711267609802 1
force Mo  -0.000000000000000   0.000000000000000  -0.005711267607075 1
force Mo   0.000000000000000  -0.000000000000000   0.005711267609802 1
force Mo  -0.000000000000000   0.000000000000000  -0.005711267607075 1
force C   0.000000000000000  -0.000000000000000   0.000000000000000 1
force C   0.000000000000000   0.000000000000000  -0.000000000000000 1
force C  -0.000000000000000  -0.000000000000000  -0.000000000000000 1
force C  -0.000000000000000   0.000000000000000  -0.000000000000000 1
force C  -0.000000000000000  -0.000000000000000  -0.000000000000000 1
force C   0.000000000000000  -0.000000000000000   0.000000000000000 1
force C  -0.000000000000000   0.000000000000000  -0.000000000000000 1
force C  -0.000000000000000   0.000000000000000  -0.000000000000000 1
force C  -0.000000000000000  -0.000000000000000  -0.000000000000000 1
force C  -0.000000000000000  -0.000000000000000   0.000000000000000 1
force C   0.000000000000000  -0.000000000000000   0.000000000000000 1
force C  -0.000000000000000   0.000000000000000  -0.000000000000000 1
force C  -0.000000000000000   0.000000000000000  -0.000000000000000 1
force C   0.000000000000000  -0.000000000000000   0.000000000000000 1
force C  -0.000000000000000   0.000000000000000   0.000000000000000 1
force C  -0.000000000000000  -0.000000000000000   0.000000000000000 1
force O   0.000000000000000   0.000000000000000   0.006621995518486 1
force O   0.000000000000000   0.000000000000000  -0.006621995513257 1
force O  -0.000000000000000  -0.000000000000000   0.006621995518486 1
force O  -0.000000000000000  -0.000000000000000  -0.006621995513260 1
force O   0.000000000000000  -0.000000000000000   0.006621995518486 1
force O  -0.000000000000000  -0.000000000000000  -0.006621995513257 1
force O   0.000000000000000  -0.000000000000000   0.006621995518490 1
force O  -0.000000000000000  -0.000000000000000  -0.006621995513264 1
force O   0.000000000000000  -0.000000000000000   0.006621995518486 1
force O   0.000000000000000  -0.000000000000000  -0.006621995513260 1
force O  -0.000000000000000  -0.000000000000000   0.006621995518486 1
force O   0.000000000000000  -0.000000000000000  -0.006621995513264 1
force O  -0.000000000000000   0.000000000000000   0.006621995518486 1
force O   0.000000000000000   0.000000000000000  -0.006621995513260 1
force O   0.000000000000000  -0.000000000000000   0.006621995518486 1
force O   0.000000000000000   0.000000000000000  -0.006621995513260 1
force O  -0.000000000000000  -0.000000000000000   0.006621995518486 1
force O  -0.000000000000000   0.000000000000000  -0.006621995513711 1
force O  -0.000000000000000  -0.000000000000000   0.006621995518486 1
force O   0.000000000000000  -0.000000000000000  -0.006621995513260 1
force O   0.000000000000000  -0.000000000000000   0.006621995518490 1
force O   0.000000000000000  -0.000000000000000  -0.006621995513715 1
force O   0.000000000000000   0.000000000000000   0.006621995518486 1
force O  -0.000000000000000  -0.000000000000000  -0.006621995513711 1
force O  -0.000000000000000  -0.000000000000000   0.006621995518486 1
force O  -0.000000000000000   0.000000000000000  -0.006621995513719 1
force O  -0.000000000000000  -0.000000000000000   0.006621995518486 1
force O   0.000000000000000  -0.000000000000000  -0.006621995513719 1
force O   0.000000000000000  -0.000000000000000   0.006621995518486 1
force O   0.000000000000000  -0.000000000000000  -0.006621995513264 1
force O  -0.000000000000000   0.000000000000000   0.006621995518486 1
force O  -0.000000000000000   0.000000000000000  -0.006621995513719 1

# Energy components:
   A_diel =       -0.1559204619901745
   Eewald =    28614.3884912729517964
       EH =    31006.7755544981337152
     Eloc =   -63254.8405978891096311
      Enl =      495.2475714061291114
      Exc =     -455.6974973334387187
 Exc_core =       41.6778033373818886
       KE =      755.7101428508091203
  MuShift =       -0.0206063195381389
-------------------------------------
     Etot =    -2796.9150586386758732
       TS =        0.1151265102052254
-------------------------------------
        F =    -2797.0301851488811735

IonicMinimize: Iter:   2  F: -2797.030185148881174  |grad|_K:  8.680e-05  alpha:  1.000e+00  linmin: -7.995e-03  t[s]:   3489.94
IonicMinimize: Converged (|grad|_K<1.000000e-04).

#--- Lowdin population analysis ---
# oxidation-state Mo +0.530 +0.530 +0.530 +0.530 +0.530 +0.530 +0.530 +0.530 +0.530 +0.530 +0.530 +0.530 +0.530 +0.530 +0.530 +0.530 +0.530 +0.530 +0.530 +0.530 +0.530 +0.530 +0.530 +0.530 +0.530 +0.530 +0.530 +0.530 +0.530 +0.530 +0.530 +0.530
# oxidation-state C -0.229 -0.229 -0.229 -0.229 -0.229 -0.229 -0.229 -0.229 -0.229 -0.229 -0.229 -0.229 -0.229 -0.229 -0.229 -0.229
# oxidation-state O -0.385 -0.385 -0.385 -0.385 -0.385 -0.385 -0.385 -0.385 -0.385 -0.385 -0.385 -0.385 -0.385 -0.385 -0.385 -0.385 -0.385 -0.385 -0.385 -0.385 -0.385 -0.385 -0.385 -0.385 -0.385 -0.385 -0.385 -0.385 -0.385 -0.385 -0.385 -0.385


Dumping 'NbTe2.fillings' ... done
Dumping 'NbTe2.wfns' ... done
Dumping 'NbTe2.fluidState' ... done
Dumping 'NbTe2.ionpos' ... done
Dumping 'NbTe2.eigenvals' ... done
End date and time: Thu Apr 15 12:08:43 2021  (Duration: 0-0:58:14.85)
Done!
