
*************** JDFTx 1.5.0  ***************

Start date and time: Sun Jul  5 04:14:54 2020
Executable jdftx_gpu with command-line: -i Charged.in -o Charged.out
Running on hosts (process indices):  amax (0)
Divided in process groups (process indices):  0 (0)
gpuInit: Found compatible cuda device 0 'Tesla K80'
gpuInit: Selected device 0
Resource initialization completed at t[s]:     17.85
Run totals: 1 processes, 24 threads, 1 GPUs


Input parsed successfully to the following command list (including defaults):

basis kpoint-dependent
cache-projectors no
coords-type Lattice
core-overlap-check none
coulomb-interaction Slab 001
coulomb-truncation-embed 0 0 0.5
davidson-band-ratio 1.1
dump End State
dump-name NbTe2.$VAR
elec-cutoff 20 100
elec-eigen-algo Davidson
elec-ex-corr gga-PBE
elec-smearing Gauss 0.0073499
electronic-minimize  \
	dirUpdateScheme      L-BFGS \
	linminMethod         DirUpdateRecommended \
	nIterations          500 \
	history              15 \
	knormThreshold       0 \
	energyDiffThreshold  1e-08 \
	nEnergyDiff          2 \
	alphaTstart          1 \
	alphaTmin            1e-10 \
	updateTestStepSize   yes \
	alphaTreduceFactor   0.1 \
	alphaTincreaseFactor 3 \
	nAlphaAdjustMax      3 \
	wolfeEnergy          0.0001 \
	wolfeGradient        0.9 \
	fdTest               no
exchange-regularization WignerSeitzTruncated
fluid LinearPCM 298.000000 1.013250
fluid-anion F- 1 MeanFieldLJ \
	epsBulk 1 \
	pMol 0 \
	epsInf 1 \
	Pvap 0 \
	sigmaBulk 0 \
	Rvdw 2.24877 \
	Res 0 \
	tauNuc 343133
fluid-cation Na+ 1 MeanFieldLJ \
	epsBulk 1 \
	pMol 0 \
	epsInf 1 \
	Pvap 0 \
	sigmaBulk 0 \
	Rvdw 2.19208 \
	Res 0 \
	tauNuc 343133
fluid-ex-corr lda-TF lda-PZ
fluid-gummel-loop 10 1.000000e-05
fluid-minimize  \
	dirUpdateScheme      PolakRibiere \
	linminMethod         DirUpdateRecommended \
	nIterations          400 \
	history              15 \
	knormThreshold       1e-11 \
	energyDiffThreshold  0 \
	nEnergyDiff          2 \
	alphaTstart          1 \
	alphaTmin            1e-10 \
	updateTestStepSize   yes \
	alphaTreduceFactor   0.1 \
	alphaTincreaseFactor 3 \
	nAlphaAdjustMax      6 \
	wolfeEnergy          0.0001 \
	wolfeGradient        0.9 \
	fdTest               no
fluid-solvent H2O 55.338 ScalarEOS \
	epsBulk 78.4 \
	pMol 0.92466 \
	epsInf 1.77 \
	Pvap 1.06736e-10 \
	sigmaBulk 4.62e-05 \
	Rvdw 2.61727 \
	Res 1.42 \
	tauNuc 343133 \
	poleEl 15 7 1
forces-output-coords Positions
initial-state NbTe2.$VAR
ion Te   0.222222237245162   0.222222263689765   0.609293118593181 0
ion Te   0.555555570578498   0.222222263689765   0.609293118593181 0
ion Te   0.888888903911827   0.222222263689765   0.609293118593181 0
ion Te   0.222222237245162   0.555555597023101   0.609293118593181 0
ion Te   0.555555570578498   0.555555597023101   0.609293118593181 0
ion Te   0.888888903911827   0.555555597023101   0.609293118593181 0
ion Te   0.222222237245162   0.888888930356430   0.609293118593181 0
ion Te   0.555555570578498   0.888888930356430   0.609293118593181 0
ion Te   0.888888903911827   0.888888930356430   0.609293118593181 0
ion Te   0.222222255499354   0.222222228809997   0.390691505753834 0
ion Te   0.555555588832682   0.222222228809997   0.390691505753834 0
ion Te   0.888888922166018   0.222222228809997   0.390691505753834 0
ion Te   0.222222255499354   0.555555562143326   0.390691505753834 0
ion Te   0.555555588832682   0.555555562143326   0.390691505753834 0
ion Te   0.888888922166018   0.555555562143326   0.390691505753834 0
ion Te   0.222222255499354   0.888888895476661   0.390691505753834 0
ion Te   0.555555588832682   0.888888895476661   0.390691505753834 0
ion Te   0.888888922166018   0.888888895476661   0.390691505753834 0
ion Pt   0.111111144387905   0.111111136485540   0.540912908987382 0
ion Pt   0.444444477721241   0.111111136485540   0.540912908987382 0
ion Pt   0.777777811054577   0.111111136485540   0.540912908987382 0
ion Pt   0.111111144387905   0.444444469818869   0.540912908987382 0
ion Pt   0.444444477721241   0.444444469818869   0.540912908987382 0
ion Pt   0.777777811054577   0.444444469818869   0.540912908987382 0
ion Pt   0.111111144387905   0.777777803152205   0.540912908987382 0
ion Pt   0.444444477721241   0.777777803152205   0.540912908987382 0
ion Pt   0.777777811054577   0.777777803152205   0.540912908987382 0
ion Pt   0.000000029534242   0.000000037681367   0.459102466665603 0
ion Pt   0.333333362867577   0.000000037681367   0.459102466665603 0
ion Pt   0.666666696200913   0.000000037681367   0.459102466665603 0
ion Pt   0.000000029534242   0.333333371014703   0.459102466665603 0
ion Pt   0.333333362867577   0.333333371014703   0.459102466665603 0
ion Pt   0.666666696200913   0.333333371014703   0.459102466665603 0
ion Pt   0.000000029534242   0.666666704348032   0.459102466665603 0
ion Pt   0.333333362867577   0.666666704348032   0.459102466665603 0
ion Pt   0.666666696200913   0.666666704348032   0.459102466665603 0
ion-species GBRV/$ID_pbe.uspp
ion-width Ecut
ionic-minimize  \
	dirUpdateScheme      L-BFGS \
	linminMethod         DirUpdateRecommended \
	nIterations          0 \
	history              15 \
	knormThreshold       0.0001 \
	energyDiffThreshold  1e-06 \
	nEnergyDiff          2 \
	alphaTstart          1 \
	alphaTmin            1e-10 \
	updateTestStepSize   yes \
	alphaTreduceFactor   0.1 \
	alphaTincreaseFactor 3 \
	nAlphaAdjustMax      3 \
	wolfeEnergy          0.0001 \
	wolfeGradient        0.9 \
	fdTest               no
kpoint   0.000000000000   0.000000000000   0.000000000000  1.00000000000000
kpoint-folding 3 3 1 
latt-move-scale 1 1 1
latt-scale 1 1 1 
lattice Triclinic 22.2361 22.2361 35.8109 90 90 60
lattice-minimize  \
	dirUpdateScheme      L-BFGS \
	linminMethod         DirUpdateRecommended \
	nIterations          0 \
	history              15 \
	knormThreshold       0 \
	energyDiffThreshold  1e-06 \
	nEnergyDiff          2 \
	alphaTstart          1 \
	alphaTmin            1e-10 \
	updateTestStepSize   yes \
	alphaTreduceFactor   0.1 \
	alphaTincreaseFactor 3 \
	nAlphaAdjustMax      3 \
	wolfeEnergy          0.0001 \
	wolfeGradient        0.9 \
	fdTest               no
lcao-params -1 1e-06 0.0073499
pcm-variant CANDLE
spintype no-spin
subspace-rotation-factor 1 yes
symmetries automatic
symmetry-threshold 0.0001
target-mu -0.24475 no




---------- Setting up symmetries ----------

Found 24 point-group symmetries of the bravais lattice
Found 54 space-group symmetries with basis
Applied RMS atom displacement 2.89832e-07 bohrs to make symmetries exact.

---------- Initializing the Grid ----------
R = 
[    22.2361     11.118          0  ]
[          0     19.257          0  ]
[          0          0    35.8109  ]
unit cell volume = 15334.2
G =
[   0.282567   -0.16314          0  ]
[          0    0.32628          0  ]
[          0          0   0.175454  ]
Minimum fftbox size, Smin = [  104  104  164  ]
Chosen fftbox size, S = [  108  108  168  ]

---------- Initializing tighter grid for wavefunction operations ----------
R = 
[    22.2361     11.118          0  ]
[          0     19.257          0  ]
[          0          0    35.8109  ]
unit cell volume = 15334.2
G =
[   0.282567   -0.16314          0  ]
[          0    0.32628          0  ]
[          0          0   0.175454  ]
Minimum fftbox size, Smin = [  92  92  148  ]
Chosen fftbox size, S = [  96  96  150  ]

---------- Exchange Correlation functional ----------
Initalized PBE GGA exchange.
Initalized PBE GGA correlation.

---------- Setting up pseudopotentials ----------
Width of ionic core gaussian charges (only for fluid interactions / plotting) set to 0.397384

Reading pseudopotential file '/home/guoxy/vasp/jdftx-1.5.0/build/pseudopotentials/GBRV/te_pbe.uspp':
  Title: Te.  Created by USPP 7.3.6 on 14-9-2013
  Reference state energy: -13.134220.  6 valence electrons in orbitals:
    |500>  occupation: 2  eigenvalue: -0.555231
    |510>  occupation: 4  eigenvalue: -0.218781
  lMax: 2  lLocal: 2  QijEcut: 5
  5 projectors sampled on a log grid with 723 points:
    l: 0  eig: -0.555229  rCut: 2.1
    l: 0  eig: 1.000000  rCut: 2.1
    l: 1  eig: -0.218780  rCut: 2.1
    l: 1  eig: 1.000000  rCut: 2.1
    l: 2  eig: 1.000000  rCut: 2.6
  Partial core density with radius 1.8
  Transforming core density to a uniform radial grid of dG=0.02 with 1700 points.
  Transforming local potential to a uniform radial grid of dG=0.02 with 1700 points.
  Transforming nonlocal projectors to a uniform radial grid of dG=0.02 with 432 points.
  Transforming density augmentations to a uniform radial grid of dG=0.02 with 1700 points.
  Transforming atomic orbitals to a uniform radial grid of dG=0.02 with 432 points.
  Core radius for overlap checks: 2.60 bohrs.

Reading pseudopotential file '/home/guoxy/vasp/jdftx-1.5.0/build/pseudopotentials/GBRV/pt_pbe.uspp':
  Title: Pt.  Created by USPP 7.3.6 on 31-3-15
  Reference state energy: -105.002503.  16 valence electrons in orbitals:
    |510>  occupation: 6  eigenvalue: -2.158104
    |520>  occupation: 9.5  eigenvalue: -0.335376
    |600>  occupation: 0  eigenvalue: -0.319640
    |610>  occupation: 0  eigenvalue: -0.122947
  lMax: 2  lLocal: 3  QijEcut: 5.5
  6 projectors sampled on a log grid with 745 points:
    l: 0  eig: -0.319640  rCut: 2.45
    l: 0  eig: 1.500000  rCut: 2.45
    l: 1  eig: -2.158104  rCut: 1.6
    l: 1  eig: -0.122947  rCut: 1.6
    l: 2  eig: -0.500000  rCut: 1.6
    l: 2  eig: -0.335375  rCut: 1.6
  Partial core density with radius 1.1
  Transforming core density to a uniform radial grid of dG=0.02 with 1700 points.
  Transforming local potential to a uniform radial grid of dG=0.02 with 1700 points.
  Transforming nonlocal projectors to a uniform radial grid of dG=0.02 with 432 points.
  Transforming density augmentations to a uniform radial grid of dG=0.02 with 1700 points.
  Transforming atomic orbitals to a uniform radial grid of dG=0.02 with 432 points.
  Core radius for overlap checks: 2.45 bohrs.

Initialized 2 species with 36 total atoms.

Folded 1 k-points by 3x3x1 to 9 k-points.

---------- Setting up k-points, bands, fillings ----------
Adding inversion symmetry to k-mesh for non-inversion-symmetric unit cell.
Reduced to 3 k-points under symmetry. 
Computing the number of bands and number of electrons
Reading initial fillings from file NbTe2.fillings.
nElectrons: 396.000000   nBands: 288   nStates: 3

----- Setting up reduced wavefunction bases (one per k-point) -----
average nbasis = 65492.778 , ideal nbasis = 65509.045

---------- Setting up coulomb interaction ----------
Fluid mode embedding: using embedded box, but periodic Coulomb kernel.
(Fluid response is responsible for (approximate) separation between periodic images.)
Setting up double-sized grid for truncated Coulomb potentials:
R = 
[    22.2361     11.118          0  ]
[          0     19.257          0  ]
[          0          0    71.6218  ]
unit cell volume = 30668.5
G =
[   0.282567   -0.16314          0  ]
[          0    0.32628          0  ]
[          0          0  0.0877272  ]
Chosen fftbox size, S = [  108  108  336  ]
Integer grid location selected as the embedding center:
   Grid: [  0  0  84  ]
   Lattice: [  0  0  0.5  ]
   Cartesian: [  0  0  17.9055  ]
Constructing Wigner-Seitz cell: 8 faces (6 quadrilaterals, 2 hexagons)
Range-separation parameter for embedded mesh potentials due to point charges: 0.582456 bohrs.

Initializing van der Waals corrections
	NOTE: vdW corrections apply only for interactions with fluid.
	Te:  C6:  550.54 Eh-a0^6  R0: 3.575 a0
	Pt:  C6:  815.23 Eh-a0^6  R0: 3.326 a0 (WARNING: beyond Grimme's data set)

---------- Setting up ewald sum ----------
Optimum gaussian width for ewald sums = 6.872115 bohr.
Real space sum over 605 unit cells with max indices [  5  5  2  ]
Reciprocal space sum over 5915 terms with max indices [  6  6  17  ]

---------- Allocating electronic variables ----------
Initializing wave functions:  reading from 'NbTe2.wfns'
----- createFluidSolver() ----- (Fluid-side solver setup)
   Initializing fluid molecule 'H2O'
     Initializing site 'O'
       Electron density: proportional to exp(-r/0.36935)*erfc((r-0.51523)/0.36823) with norm 6.826
       Charge density: gaussian nuclear width 0.478731 with net site charge 0.826
       Polarizability: cuspless exponential with width 0.32 and norm 3.73
       Hard sphere radius: 2.57003 bohrs
       Positions in reference frame:
         [ +0.000000 +0.000000 +0.000000 ]
     Initializing site 'H'
       Electron density: proportional to exp(-r/0.34641)*erfc((r-0)/0.390882) with norm 0.587
       Charge density: gaussian nuclear width 0.377945 with net site charge -0.413
       Polarizability: cuspless exponential with width 0.39 and norm 3.3
       Positions in reference frame:
         [ +0.000000 -1.441945 +1.122523 ]
         [ +0.000000 +1.441945 +1.122523 ]
     Net charge: 0   dipole magnitude: 0.927204
     Initializing spherical shell mfKernel with radius 2.61727 Bohr
     deltaS corrections:
       site 'O': -7.54299
       site 'H': -6.83917
   Initializing fluid molecule 'Na+'
     Initializing site 'Na'
       Electron density: proportional to exp(-r/0.19682)*erfc((r-0.71491)/0.41314) with norm 8.1383
       Charge density: gaussian nuclear width 0.365347 with net site charge -1
       Hard sphere radius: 1.86327 bohrs
       Positions in reference frame:
         [ +0.000000 +0.000000 +0.000000 ]
     Net charge: -1   dipole magnitude: 0
     Initializing gaussian mfKernel with width: 1.55004 Bohr
     deltaS corrections:
       site 'Na': -22.3555
   Initializing fluid molecule 'F-'
     Initializing site 'F'
       Electron density: proportional to exp(-r/0.38886)*erfc((r-0)/0.438782) with norm 8
       Charge density: gaussian nuclear width 0.374796 with net site charge 1
       Hard sphere radius: 2.39995 bohrs
       Positions in reference frame:
         [ +0.000000 +0.000000 +0.000000 ]
     Net charge: 1   dipole magnitude: 0
     Initializing gaussian mfKernel with width: 1.59012 Bohr
     deltaS corrections:
       site 'F': -9.04335

Correction to mu due to finite nuclear width = -0.0128116
   Cavity determined by nc: 0.00142 and sigma: 0.707107
   Nonlocal vdW cavity from gaussian model electron density with norm = 8 and sigma = 0.993594 bohr
   Charge asymmetry in cavity with sensitivity pCavity = 36.5 e-bohr/Eh
   Electrostatic cavity expanded by eta = 1.46 bohrs
   Weighted density cavitation model constrained by Nbulk: 0.0049383 bohr^-3, Pvap: 3.14029 kPa, Rvdw: 2.61727 bohr and sigmaBulk: 4.62e-05 Eh/bohr^2 at T: 298 K.
   Weighted density dispersion model using vdW pair potentials with single solvent site with sqrtC6eff: 0.77 SI.
Reading fluid state from 'NbTe2.fluidState'


---- Citations for features of the code used in this run ----

   Software package:
      R. Sundararaman, K. Letchworth-Weaver, K.A. Schwarz, D. Gunceler, Y. Ozhabes and T.A. Arias, 'JDFTx: software for joint density-functional theory', SoftwareX 6, 278 (2017)

   gga-PBE exchange-correlation functional:
      J.P. Perdew, K. Burke and M. Ernzerhof, Phys. Rev. Lett. 77, 3865 (1996)

   Pseudopotentials:
      KF Garrity, JW Bennett, KM Rabe and D Vanderbilt, Comput. Mater. Sci. 81, 446 (2014)

   Truncated Coulomb potentials:
      R. Sundararaman and T.A. Arias, Phys. Rev. B 87, 165122 (2013)

   Van der Waals correction pair-potentials:
      S. Grimme, J. Comput. Chem. 27, 1787 (2006)

   Charge-asymmetric nonlocally-determined local-electric (CANDLE) solvation model:
      R. Sundararaman and W.A. Goddard III, J. Chem. Phys. 142, 064107 (2015)

   Total energy minimization with Auxiliary Hamiltonian:
      C. Freysoldt, S. Boeck, and J. Neugebauer, Phys. Rev. B 79, 241103(R) (2009)

   Grand-canonical (fixed-potential) DFT:
      R. Sundararaman, W. A. Goddard III and T. A. Arias, J. Chem. Phys. 146, 114104 (2017)

This list may not be complete. Please suggest additional citations or
report any other bugs at https://github.com/shankar1729/jdftx/issues

Initialization completed successfully at t[s]:     29.61

Shifting auxilliary hamiltonian by -0.087838 to set nElectrons=396.000000
	Linear fluid (dielectric constant: 78.4, screening length: 5.74355 Bohr) occupying 0.729067 of unit cell:	Completed after 0 iterations at t[s]:     34.71

-------- Electronic minimization -----------
	Linear fluid (dielectric constant: 78.4, screening length: 5.74355 Bohr) occupying 0.729067 of unit cell:	Completed after 0 iterations at t[s]:     40.10
	FillingsUpdate:  mu: -0.244750400  nElectrons: 396.000000
ElecMinimize: Iter:   0  G: -1653.907463319322005  |grad|_K:  1.947e-04  t[s]:     48.82
	Linear fluid (dielectric constant: 78.4, screening length: 5.74355 Bohr) occupying 0.744777 of unit cell:	Completed after 19 iterations at t[s]:     58.69
ElecMinimize: 	Wolfe criterion not satisfied: alpha: 1  (E-E0)/|gdotd0|: 58.2558  gdotd/gdotd0: -171.937 (taking cubic step)
	Linear fluid (dielectric constant: 78.4, screening length: 5.74355 Bohr) occupying 0.730089 of unit cell:	Completed after 19 iterations at t[s]:     77.04
	FillingsUpdate:  mu: -0.244750400  nElectrons: 393.274413
	SubspaceRotationAdjust: set factor to 0.5
ElecMinimize: Iter:   1  G: -1653.942994505804108  |grad|_K:  1.704e-04  alpha:  5.408e-02  linmin:  2.650e-02  t[s]:     86.42
	Linear fluid (dielectric constant: 78.4, screening length: 5.74355 Bohr) occupying 0.729654 of unit cell:	Completed after 14 iterations at t[s]:     95.48
	FillingsUpdate:  mu: -0.244750400  nElectrons: 395.070513
	SubspaceRotationAdjust: set factor to 0.201
ElecMinimize: Iter:   2  G: -1653.968882041302322  |grad|_K:  6.786e-05  alpha:  1.000e+00  linmin:  5.329e-02  t[s]:    104.60
	Linear fluid (dielectric constant: 78.4, screening length: 5.74355 Bohr) occupying 0.730119 of unit cell:	Completed after 14 iterations at t[s]:    114.11
	FillingsUpdate:  mu: -0.244750400  nElectrons: 394.350786
	SubspaceRotationAdjust: set factor to 0.168
ElecMinimize: Iter:   3  G: -1653.989424996436583  |grad|_K:  2.648e-05  alpha:  1.000e+00  linmin: -9.836e-03  t[s]:    123.56

*************** JDFTx 1.5.0  ***************

Start date and time: Sun Jul  5 21:01:02 2020
Executable jdftx_gpu with command-line: -i Charged.in -o Charged.out
Running on hosts (process indices):  amax (0)
Divided in process groups (process indices):  0 (0)
gpuInit: Found compatible cuda device 0 'Tesla K80'
gpuInit: Selected device 0
Resource initialization completed at t[s]:      7.35
Run totals: 1 processes, 24 threads, 1 GPUs


Input parsed successfully to the following command list (including defaults):

basis kpoint-dependent
cache-projectors no
coords-type Lattice
core-overlap-check none
coulomb-interaction Slab 001
coulomb-truncation-embed 0 0 0.5
davidson-band-ratio 1.1
dump End State
dump-name NbTe2.$VAR
elec-cutoff 20 100
elec-eigen-algo Davidson
elec-ex-corr gga-PBE
elec-smearing Gauss 0.0073499
electronic-minimize  \
	dirUpdateScheme      FletcherReeves \
	linminMethod         DirUpdateRecommended \
	nIterations          200 \
	history              15 \
	knormThreshold       0 \
	energyDiffThreshold  1e-08 \
	nEnergyDiff          2 \
	alphaTstart          1 \
	alphaTmin            1e-10 \
	updateTestStepSize   yes \
	alphaTreduceFactor   0.1 \
	alphaTincreaseFactor 3 \
	nAlphaAdjustMax      3 \
	wolfeEnergy          0.0001 \
	wolfeGradient        0.9 \
	fdTest               no
exchange-regularization WignerSeitzTruncated
fluid LinearPCM 298.000000 1.013250
fluid-anion F- 1 MeanFieldLJ \
	epsBulk 1 \
	pMol 0 \
	epsInf 1 \
	Pvap 0 \
	sigmaBulk 0 \
	Rvdw 2.24877 \
	Res 0 \
	tauNuc 343133
fluid-cation Na+ 1 MeanFieldLJ \
	epsBulk 1 \
	pMol 0 \
	epsInf 1 \
	Pvap 0 \
	sigmaBulk 0 \
	Rvdw 2.19208 \
	Res 0 \
	tauNuc 343133
fluid-ex-corr lda-TF lda-PZ
fluid-gummel-loop 10 1.000000e-05
fluid-minimize  \
	dirUpdateScheme      PolakRibiere \
	linminMethod         DirUpdateRecommended \
	nIterations          400 \
	history              15 \
	knormThreshold       1e-11 \
	energyDiffThreshold  0 \
	nEnergyDiff          2 \
	alphaTstart          1 \
	alphaTmin            1e-10 \
	updateTestStepSize   yes \
	alphaTreduceFactor   0.1 \
	alphaTincreaseFactor 3 \
	nAlphaAdjustMax      6 \
	wolfeEnergy          0.0001 \
	wolfeGradient        0.9 \
	fdTest               no
fluid-solvent H2O 55.338 ScalarEOS \
	epsBulk 78.4 \
	pMol 0.92466 \
	epsInf 1.77 \
	Pvap 1.06736e-10 \
	sigmaBulk 4.62e-05 \
	Rvdw 2.61727 \
	Res 1.42 \
	tauNuc 343133 \
	poleEl 15 7 1
forces-output-coords Positions
initial-state NbTe2.$VAR
ion Te   0.222222237245162   0.222222263689765   0.609293118593181 0
ion Te   0.555555570578498   0.222222263689765   0.609293118593181 0
ion Te   0.888888903911827   0.222222263689765   0.609293118593181 0
ion Te   0.222222237245162   0.555555597023101   0.609293118593181 0
ion Te   0.555555570578498   0.555555597023101   0.609293118593181 0
ion Te   0.888888903911827   0.555555597023101   0.609293118593181 0
ion Te   0.222222237245162   0.888888930356430   0.609293118593181 0
ion Te   0.555555570578498   0.888888930356430   0.609293118593181 0
ion Te   0.888888903911827   0.888888930356430   0.609293118593181 0
ion Te   0.222222255499354   0.222222228809997   0.390691505753834 0
ion Te   0.555555588832682   0.222222228809997   0.390691505753834 0
ion Te   0.888888922166018   0.222222228809997   0.390691505753834 0
ion Te   0.222222255499354   0.555555562143326   0.390691505753834 0
ion Te   0.555555588832682   0.555555562143326   0.390691505753834 0
ion Te   0.888888922166018   0.555555562143326   0.390691505753834 0
ion Te   0.222222255499354   0.888888895476661   0.390691505753834 0
ion Te   0.555555588832682   0.888888895476661   0.390691505753834 0
ion Te   0.888888922166018   0.888888895476661   0.390691505753834 0
ion Pt   0.111111144387905   0.111111136485540   0.540912908987382 0
ion Pt   0.444444477721241   0.111111136485540   0.540912908987382 0
ion Pt   0.777777811054577   0.111111136485540   0.540912908987382 0
ion Pt   0.111111144387905   0.444444469818869   0.540912908987382 0
ion Pt   0.444444477721241   0.444444469818869   0.540912908987382 0
ion Pt   0.777777811054577   0.444444469818869   0.540912908987382 0
ion Pt   0.111111144387905   0.777777803152205   0.540912908987382 0
ion Pt   0.444444477721241   0.777777803152205   0.540912908987382 0
ion Pt   0.777777811054577   0.777777803152205   0.540912908987382 0
ion Pt   0.000000029534242   0.000000037681367   0.459102466665603 0
ion Pt   0.333333362867577   0.000000037681367   0.459102466665603 0
ion Pt   0.666666696200913   0.000000037681367   0.459102466665603 0
ion Pt   0.000000029534242   0.333333371014703   0.459102466665603 0
ion Pt   0.333333362867577   0.333333371014703   0.459102466665603 0
ion Pt   0.666666696200913   0.333333371014703   0.459102466665603 0
ion Pt   0.000000029534242   0.666666704348032   0.459102466665603 0
ion Pt   0.333333362867577   0.666666704348032   0.459102466665603 0
ion Pt   0.666666696200913   0.666666704348032   0.459102466665603 0
ion-species GBRV/$ID_pbe.uspp
ion-width Ecut
ionic-minimize  \
	dirUpdateScheme      L-BFGS \
	linminMethod         DirUpdateRecommended \
	nIterations          0 \
	history              15 \
	knormThreshold       0.0001 \
	energyDiffThreshold  1e-06 \
	nEnergyDiff          2 \
	alphaTstart          1 \
	alphaTmin            1e-10 \
	updateTestStepSize   yes \
	alphaTreduceFactor   0.1 \
	alphaTincreaseFactor 3 \
	nAlphaAdjustMax      3 \
	wolfeEnergy          0.0001 \
	wolfeGradient        0.9 \
	fdTest               no
kpoint   0.000000000000   0.000000000000   0.000000000000  1.00000000000000
kpoint-folding 3 3 1 
latt-move-scale 1 1 1
latt-scale 1 1 1 
lattice Triclinic 22.2361 22.2361 35.8109 90 90 60
lattice-minimize  \
	dirUpdateScheme      L-BFGS \
	linminMethod         DirUpdateRecommended \
	nIterations          0 \
	history              15 \
	knormThreshold       0 \
	energyDiffThreshold  1e-06 \
	nEnergyDiff          2 \
	alphaTstart          1 \
	alphaTmin            1e-10 \
	updateTestStepSize   yes \
	alphaTreduceFactor   0.1 \
	alphaTincreaseFactor 3 \
	nAlphaAdjustMax      3 \
	wolfeEnergy          0.0001 \
	wolfeGradient        0.9 \
	fdTest               no
lcao-params -1 1e-06 0.0073499
pcm-variant CANDLE
spintype no-spin
subspace-rotation-factor 1 yes
symmetries automatic
symmetry-threshold 0.0001
target-mu -0.24475 no




---------- Setting up symmetries ----------

Found 24 point-group symmetries of the bravais lattice
Found 54 space-group symmetries with basis
Applied RMS atom displacement 2.89832e-07 bohrs to make symmetries exact.

---------- Initializing the Grid ----------
R = 
[    22.2361     11.118          0  ]
[          0     19.257          0  ]
[          0          0    35.8109  ]
unit cell volume = 15334.2
G =
[   0.282567   -0.16314          0  ]
[          0    0.32628          0  ]
[          0          0   0.175454  ]
Minimum fftbox size, Smin = [  104  104  164  ]
Chosen fftbox size, S = [  108  108  168  ]

---------- Initializing tighter grid for wavefunction operations ----------
R = 
[    22.2361     11.118          0  ]
[          0     19.257          0  ]
[          0          0    35.8109  ]
unit cell volume = 15334.2
G =
[   0.282567   -0.16314          0  ]
[          0    0.32628          0  ]
[          0          0   0.175454  ]
Minimum fftbox size, Smin = [  92  92  148  ]
Chosen fftbox size, S = [  96  96  150  ]

---------- Exchange Correlation functional ----------
Initalized PBE GGA exchange.
Initalized PBE GGA correlation.

---------- Setting up pseudopotentials ----------
Width of ionic core gaussian charges (only for fluid interactions / plotting) set to 0.397384

Reading pseudopotential file '/home/guoxy/vasp/jdftx-1.5.0/build/pseudopotentials/GBRV/te_pbe.uspp':
  Title: Te.  Created by USPP 7.3.6 on 14-9-2013
  Reference state energy: -13.134220.  6 valence electrons in orbitals:
    |500>  occupation: 2  eigenvalue: -0.555231
    |510>  occupation: 4  eigenvalue: -0.218781
  lMax: 2  lLocal: 2  QijEcut: 5
  5 projectors sampled on a log grid with 723 points:
    l: 0  eig: -0.555229  rCut: 2.1
    l: 0  eig: 1.000000  rCut: 2.1
    l: 1  eig: -0.218780  rCut: 2.1
    l: 1  eig: 1.000000  rCut: 2.1
    l: 2  eig: 1.000000  rCut: 2.6
  Partial core density with radius 1.8
  Transforming core density to a uniform radial grid of dG=0.02 with 1700 points.
  Transforming local potential to a uniform radial grid of dG=0.02 with 1700 points.
  Transforming nonlocal projectors to a uniform radial grid of dG=0.02 with 432 points.
  Transforming density augmentations to a uniform radial grid of dG=0.02 with 1700 points.
  Transforming atomic orbitals to a uniform radial grid of dG=0.02 with 432 points.
  Core radius for overlap checks: 2.60 bohrs.

Reading pseudopotential file '/home/guoxy/vasp/jdftx-1.5.0/build/pseudopotentials/GBRV/pt_pbe.uspp':
  Title: Pt.  Created by USPP 7.3.6 on 31-3-15
  Reference state energy: -105.002503.  16 valence electrons in orbitals:
    |510>  occupation: 6  eigenvalue: -2.158104
    |520>  occupation: 9.5  eigenvalue: -0.335376
    |600>  occupation: 0  eigenvalue: -0.319640
    |610>  occupation: 0  eigenvalue: -0.122947
  lMax: 2  lLocal: 3  QijEcut: 5.5
  6 projectors sampled on a log grid with 745 points:
    l: 0  eig: -0.319640  rCut: 2.45
    l: 0  eig: 1.500000  rCut: 2.45
    l: 1  eig: -2.158104  rCut: 1.6
    l: 1  eig: -0.122947  rCut: 1.6
    l: 2  eig: -0.500000  rCut: 1.6
    l: 2  eig: -0.335375  rCut: 1.6
  Partial core density with radius 1.1
  Transforming core density to a uniform radial grid of dG=0.02 with 1700 points.
  Transforming local potential to a uniform radial grid of dG=0.02 with 1700 points.
  Transforming nonlocal projectors to a uniform radial grid of dG=0.02 with 432 points.
  Transforming density augmentations to a uniform radial grid of dG=0.02 with 1700 points.
  Transforming atomic orbitals to a uniform radial grid of dG=0.02 with 432 points.
  Core radius for overlap checks: 2.45 bohrs.

Initialized 2 species with 36 total atoms.

Folded 1 k-points by 3x3x1 to 9 k-points.

---------- Setting up k-points, bands, fillings ----------
Adding inversion symmetry to k-mesh for non-inversion-symmetric unit cell.
Reduced to 3 k-points under symmetry. 
Computing the number of bands and number of electrons
Reading initial fillings from file NbTe2.fillings.
nElectrons: 396.000000   nBands: 288   nStates: 3

----- Setting up reduced wavefunction bases (one per k-point) -----
average nbasis = 65492.778 , ideal nbasis = 65509.045

---------- Setting up coulomb interaction ----------
Fluid mode embedding: using embedded box, but periodic Coulomb kernel.
(Fluid response is responsible for (approximate) separation between periodic images.)
Setting up double-sized grid for truncated Coulomb potentials:
R = 
[    22.2361     11.118          0  ]
[          0     19.257          0  ]
[          0          0    71.6218  ]
unit cell volume = 30668.5
G =
[   0.282567   -0.16314          0  ]
[          0    0.32628          0  ]
[          0          0  0.0877272  ]
Chosen fftbox size, S = [  108  108  336  ]
Integer grid location selected as the embedding center:
   Grid: [  0  0  84  ]
   Lattice: [  0  0  0.5  ]
   Cartesian: [  0  0  17.9055  ]
Constructing Wigner-Seitz cell: 8 faces (6 quadrilaterals, 2 hexagons)
Range-separation parameter for embedded mesh potentials due to point charges: 0.582456 bohrs.

Initializing van der Waals corrections
	NOTE: vdW corrections apply only for interactions with fluid.
	Te:  C6:  550.54 Eh-a0^6  R0: 3.575 a0
	Pt:  C6:  815.23 Eh-a0^6  R0: 3.326 a0 (WARNING: beyond Grimme's data set)

---------- Setting up ewald sum ----------
Optimum gaussian width for ewald sums = 6.872115 bohr.
Real space sum over 605 unit cells with max indices [  5  5  2  ]
Reciprocal space sum over 5915 terms with max indices [  6  6  17  ]

---------- Allocating electronic variables ----------
Initializing wave functions:  reading from 'NbTe2.wfns'
----- createFluidSolver() ----- (Fluid-side solver setup)
   Initializing fluid molecule 'H2O'
     Initializing site 'O'
       Electron density: proportional to exp(-r/0.36935)*erfc((r-0.51523)/0.36823) with norm 6.826
       Charge density: gaussian nuclear width 0.478731 with net site charge 0.826
       Polarizability: cuspless exponential with width 0.32 and norm 3.73
       Hard sphere radius: 2.57003 bohrs
       Positions in reference frame:
         [ +0.000000 +0.000000 +0.000000 ]
     Initializing site 'H'
       Electron density: proportional to exp(-r/0.34641)*erfc((r-0)/0.390882) with norm 0.587
       Charge density: gaussian nuclear width 0.377945 with net site charge -0.413
       Polarizability: cuspless exponential with width 0.39 and norm 3.3
       Positions in reference frame:
         [ +0.000000 -1.441945 +1.122523 ]
         [ +0.000000 +1.441945 +1.122523 ]
     Net charge: 0   dipole magnitude: 0.927204
     Initializing spherical shell mfKernel with radius 2.61727 Bohr
     deltaS corrections:
       site 'O': -7.54299
       site 'H': -6.83917
   Initializing fluid molecule 'Na+'
     Initializing site 'Na'
       Electron density: proportional to exp(-r/0.19682)*erfc((r-0.71491)/0.41314) with norm 8.1383
       Charge density: gaussian nuclear width 0.365347 with net site charge -1
       Hard sphere radius: 1.86327 bohrs
       Positions in reference frame:
         [ +0.000000 +0.000000 +0.000000 ]
     Net charge: -1   dipole magnitude: 0
     Initializing gaussian mfKernel with width: 1.55004 Bohr
     deltaS corrections:
       site 'Na': -22.3555
   Initializing fluid molecule 'F-'
     Initializing site 'F'
       Electron density: proportional to exp(-r/0.38886)*erfc((r-0)/0.438782) with norm 8
       Charge density: gaussian nuclear width 0.374796 with net site charge 1
       Hard sphere radius: 2.39995 bohrs
       Positions in reference frame:
         [ +0.000000 +0.000000 +0.000000 ]
     Net charge: 1   dipole magnitude: 0
     Initializing gaussian mfKernel with width: 1.59012 Bohr
     deltaS corrections:
       site 'F': -9.04335

Correction to mu due to finite nuclear width = -0.0128116
   Cavity determined by nc: 0.00142 and sigma: 0.707107
   Nonlocal vdW cavity from gaussian model electron density with norm = 8 and sigma = 0.993594 bohr
   Charge asymmetry in cavity with sensitivity pCavity = 36.5 e-bohr/Eh
   Electrostatic cavity expanded by eta = 1.46 bohrs
   Weighted density cavitation model constrained by Nbulk: 0.0049383 bohr^-3, Pvap: 3.14029 kPa, Rvdw: 2.61727 bohr and sigmaBulk: 4.62e-05 Eh/bohr^2 at T: 298 K.
   Weighted density dispersion model using vdW pair potentials with single solvent site with sqrtC6eff: 0.77 SI.
Reading fluid state from 'NbTe2.fluidState'


---- Citations for features of the code used in this run ----

   Software package:
      R. Sundararaman, K. Letchworth-Weaver, K.A. Schwarz, D. Gunceler, Y. Ozhabes and T.A. Arias, 'JDFTx: software for joint density-functional theory', SoftwareX 6, 278 (2017)

   gga-PBE exchange-correlation functional:
      J.P. Perdew, K. Burke and M. Ernzerhof, Phys. Rev. Lett. 77, 3865 (1996)

   Pseudopotentials:
      KF Garrity, JW Bennett, KM Rabe and D Vanderbilt, Comput. Mater. Sci. 81, 446 (2014)

   Truncated Coulomb potentials:
      R. Sundararaman and T.A. Arias, Phys. Rev. B 87, 165122 (2013)

   Van der Waals correction pair-potentials:
      S. Grimme, J. Comput. Chem. 27, 1787 (2006)

   Charge-asymmetric nonlocally-determined local-electric (CANDLE) solvation model:
      R. Sundararaman and W.A. Goddard III, J. Chem. Phys. 142, 064107 (2015)

   Total energy minimization with Auxiliary Hamiltonian:
      C. Freysoldt, S. Boeck, and J. Neugebauer, Phys. Rev. B 79, 241103(R) (2009)

   Grand-canonical (fixed-potential) DFT:
      R. Sundararaman, W. A. Goddard III and T. A. Arias, J. Chem. Phys. 146, 114104 (2017)

This list may not be complete. Please suggest additional citations or
report any other bugs at https://github.com/shankar1729/jdftx/issues

Initialization completed successfully at t[s]:     20.91

Shifting auxilliary hamiltonian by -0.087838 to set nElectrons=396.000000
	Linear fluid (dielectric constant: 78.4, screening length: 5.74355 Bohr) occupying 0.729067 of unit cell:	Completed after 0 iterations at t[s]:     26.38

-------- Electronic minimization -----------
	Linear fluid (dielectric constant: 78.4, screening length: 5.74355 Bohr) occupying 0.729067 of unit cell:	Completed after 0 iterations at t[s]:     32.69
	FillingsUpdate:  mu: -0.244750400  nElectrons: 396.000000
ElecMinimize: Iter:   0  G: -1653.907463319332919  |grad|_K:  1.947e-04  alpha:  1.000e+00
	Linear fluid (dielectric constant: 78.4, screening length: 5.74355 Bohr) occupying 0.744777 of unit cell:	Completed after 19 iterations at t[s]:     56.02
	Linear fluid (dielectric constant: 78.4, screening length: 5.74355 Bohr) occupying 0.729223 of unit cell:	Completed after 18 iterations at t[s]:     66.05
	FillingsUpdate:  mu: -0.244750400  nElectrons: 395.584645
	SubspaceRotationAdjust: set factor to 0.501
ElecMinimize: Iter:   1  G: -1653.939209204270583  |grad|_K:  1.455e-04  alpha:  8.438e-03  linmin: -1.182e-01  t[s]:     75.90
	Linear fluid (dielectric constant: 78.4, screening length: 5.74355 Bohr) occupying 0.729454 of unit cell:	Completed after 13 iterations at t[s]:     85.95
	Linear fluid (dielectric constant: 78.4, screening length: 5.74355 Bohr) occupying 0.729756 of unit cell:	Completed after 14 iterations at t[s]:     96.11
	FillingsUpdate:  mu: -0.244750400  nElectrons: 394.322397
	SubspaceRotationAdjust: set factor to 0.32
ElecMinimize: Iter:   2  G: -1653.979313612336000  |grad|_K:  4.334e-05  alpha:  1.939e-02  linmin:  1.232e-03  t[s]:    107.56
	Linear fluid (dielectric constant: 78.4, screening length: 5.74355 Bohr) occupying 0.729919 of unit cell:	Completed after 10 iterations at t[s]:    118.74
ElecMinimize: 	Predicted alpha/alphaT>3.000000, increasing alphaT to 5.818004e-02.
	Linear fluid (dielectric constant: 78.4, screening length: 5.74355 Bohr) occupying 0.730241 of unit cell:	Completed after 12 iterations at t[s]:    128.73
ElecMinimize: 	Predicted alpha/alphaT>3.000000, increasing alphaT to 1.745401e-01.
	Linear fluid (dielectric constant: 78.4, screening length: 5.74355 Bohr) occupying 0.731186 of unit cell:	Completed after 10 iterations at t[s]:    138.06
	Linear fluid (dielectric constant: 78.4, screening length: 5.74355 Bohr) occupying 0.732111 of unit cell:	Completed after 12 iterations at t[s]:    147.52
	FillingsUpdate:  mu: -0.244750400  nElectrons: 392.862291
	SubspaceRotationAdjust: set factor to 0.18
ElecMinimize: Iter:   3  G: -1654.008880086943236  |grad|_K:  6.560e-05  alpha:  2.921e-01  linmin:  7.766e-05  t[s]:    157.57
	Linear fluid (dielectric constant: 78.4, screening length: 5.74355 Bohr) occupying 0.737525 of unit cell:	Completed after 15 iterations at t[s]:    168.02
	Linear fluid (dielectric constant: 78.4, screening length: 5.74355 Bohr) occupying 0.734851 of unit cell:	Completed after 14 iterations at t[s]:    178.27
	FillingsUpdate:  mu: -0.244750400  nElectrons: 392.293949
	SubspaceRotationAdjust: set factor to 0.238
ElecMinimize: Iter:   4  G: -1654.041812084471076  |grad|_K:  3.253e-05  alpha:  1.408e-01  linmin:  1.488e-04  t[s]:    188.35
	Linear fluid (dielectric constant: 78.4, screening length: 5.74355 Bohr) occupying 0.735806 of unit cell:	Completed after 13 iterations at t[s]:    198.39
	Linear fluid (dielectric constant: 78.4, screening length: 5.74355 Bohr) occupying 0.736502 of unit cell:	Completed after 12 iterations at t[s]:    208.34
	FillingsUpdate:  mu: -0.244750400  nElectrons: 392.440879
	SubspaceRotationAdjust: set factor to 0.216
ElecMinimize: Iter:   5  G: -1654.056505181587454  |grad|_K:  3.256e-05  alpha:  2.464e-01  linmin: -1.971e-04  t[s]:    219.38
	Linear fluid (dielectric constant: 78.4, screening length: 5.74355 Bohr) occupying 0.738699 of unit cell:	Completed after 12 iterations at t[s]:    229.70
	Linear fluid (dielectric constant: 78.4, screening length: 5.74355 Bohr) occupying 0.739385 of unit cell:	Completed after 11 iterations at t[s]:    240.03
	FillingsUpdate:  mu: -0.244750400  nElectrons: 392.000552
	SubspaceRotationAdjust: set factor to 0.223
ElecMinimize: Iter:   6  G: -1654.076726054883693  |grad|_K:  2.427e-05  alpha:  3.270e-01  linmin: -8.616e-05  t[s]:    250.31
	Linear fluid (dielectric constant: 78.4, screening length: 5.74355 Bohr) occupying 0.741432 of unit cell:	Completed after 14 iterations at t[s]:    260.40
	Linear fluid (dielectric constant: 78.4, screening length: 5.74355 Bohr) occupying 0.740893 of unit cell:	Completed after 11 iterations at t[s]:    270.28
	FillingsUpdate:  mu: -0.244750400  nElectrons: 391.476974
	SubspaceRotationAdjust: set factor to 0.186
ElecMinimize: Iter:   7  G: -1654.084755743953565  |grad|_K:  1.994e-05  alpha:  2.384e-01  linmin: -8.647e-06  t[s]:    279.90
	Linear fluid (dielectric constant: 78.4, screening length: 5.74355 Bohr) occupying 0.742116 of unit cell:	Completed after 12 iterations at t[s]:    289.75
	Linear fluid (dielectric constant: 78.4, screening length: 5.74355 Bohr) occupying 0.742516 of unit cell:	Completed after 11 iterations at t[s]:    300.11
	FillingsUpdate:  mu: -0.244750400  nElectrons: 391.359763
	SubspaceRotationAdjust: set factor to 0.286
ElecMinimize: Iter:   8  G: -1654.091996501709673  |grad|_K:  1.363e-05  alpha:  3.200e-01  linmin: -3.731e-05  t[s]:    310.62
	Linear fluid (dielectric constant: 78.4, screening length: 5.74355 Bohr) occupying 0.743343 of unit cell:	Completed after 12 iterations at t[s]:    320.22
	Linear fluid (dielectric constant: 78.4, screening length: 5.74355 Bohr) occupying 0.743251 of unit cell:	Completed after 9 iterations at t[s]:    329.20
	FillingsUpdate:  mu: -0.244750400  nElectrons: 391.501844
	SubspaceRotationAdjust: set factor to 0.248
ElecMinimize: Iter:   9  G: -1654.094996995036581  |grad|_K:  1.247e-05  alpha:  2.834e-01  linmin: -8.303e-06  t[s]:    339.81
	Linear fluid (dielectric constant: 78.4, screening length: 5.74355 Bohr) occupying 0.743896 of unit cell:	Completed after 13 iterations at t[s]:    350.41
	Linear fluid (dielectric constant: 78.4, screening length: 5.74355 Bohr) occupying 0.743998 of unit cell:	Completed after 9 iterations at t[s]:    360.25
	FillingsUpdate:  mu: -0.244750400  nElectrons: 391.349757
	SubspaceRotationAdjust: set factor to 0.303
ElecMinimize: Iter:  10  G: -1654.097921992157353  |grad|_K:  8.337e-06  alpha:  3.310e-01  linmin: -2.758e-05  t[s]:    370.61
	Linear fluid (dielectric constant: 78.4, screening length: 5.74355 Bohr) occupying 0.744247 of unit cell:	Completed after 11 iterations at t[s]:    379.98
	Linear fluid (dielectric constant: 78.4, screening length: 5.74355 Bohr) occupying 0.744328 of unit cell:	Completed after 10 iterations at t[s]:    389.27
	FillingsUpdate:  mu: -0.244750400  nElectrons: 391.256093
	SubspaceRotationAdjust: set factor to 0.282
ElecMinimize: Iter:  11  G: -1654.099699480230584  |grad|_K:  8.270e-06  alpha:  4.485e-01  linmin: -2.673e-05  t[s]:    399.24
	Linear fluid (dielectric constant: 78.4, screening length: 5.74355 Bohr) occupying 0.744483 of unit cell:	Completed after 14 iterations at t[s]:    409.52
	Linear fluid (dielectric constant: 78.4, screening length: 5.74355 Bohr) occupying 0.744405 of unit cell:	Completed after 11 iterations at t[s]:    419.18
	FillingsUpdate:  mu: -0.244750400  nElectrons: 391.368963
	SubspaceRotationAdjust: set factor to 0.197
ElecMinimize: Iter:  12  G: -1654.100473656706754  |grad|_K:  5.413e-06  alpha:  1.989e-01  linmin:  1.011e-06  t[s]:    429.80
	Linear fluid (dielectric constant: 78.4, screening length: 5.74355 Bohr) occupying 0.744398 of unit cell:	Completed after 7 iterations at t[s]:    439.75
	Linear fluid (dielectric constant: 78.4, screening length: 5.74355 Bohr) occupying 0.744387 of unit cell:	Completed after 7 iterations at t[s]:    448.77
	FillingsUpdate:  mu: -0.244750400  nElectrons: 391.353250
	SubspaceRotationAdjust: set factor to 0.234
ElecMinimize: Iter:  13  G: -1654.101119861521056  |grad|_K:  4.079e-06  alpha:  3.890e-01  linmin:  4.776e-06  t[s]:    459.34
	Linear fluid (dielectric constant: 78.4, screening length: 5.74355 Bohr) occupying 0.744326 of unit cell:	Completed after 11 iterations at t[s]:    469.23
	Linear fluid (dielectric constant: 78.4, screening length: 5.74355 Bohr) occupying 0.744339 of unit cell:	Completed after 8 iterations at t[s]:    478.30
	FillingsUpdate:  mu: -0.244750400  nElectrons: 391.319824
	SubspaceRotationAdjust: set factor to 0.207
ElecMinimize: Iter:  14  G: -1654.101411884512345  |grad|_K:  2.776e-06  alpha:  3.096e-01  linmin:  4.345e-06  t[s]:    488.08
	Linear fluid (dielectric constant: 78.4, screening length: 5.74355 Bohr) occupying 0.744305 of unit cell:	Completed after 11 iterations at t[s]:    498.32
	Linear fluid (dielectric constant: 78.4, screening length: 5.74355 Bohr) occupying 0.744306 of unit cell:	Completed after 0 iterations at t[s]:    507.28
	FillingsUpdate:  mu: -0.244750400  nElectrons: 391.357506
	SubspaceRotationAdjust: set factor to 0.161
ElecMinimize: Iter:  15  G: -1654.101541897388643  |grad|_K:  1.923e-06  alpha:  2.975e-01  linmin:  1.392e-04  t[s]:    518.10
	Linear fluid (dielectric constant: 78.4, screening length: 5.74355 Bohr) occupying 0.744290 of unit cell:	Completed after 7 iterations at t[s]:    527.56
	Linear fluid (dielectric constant: 78.4, screening length: 5.74355 Bohr) occupying 0.744288 of unit cell:	Completed after 0 iterations at t[s]:    535.93
	FillingsUpdate:  mu: -0.244750400  nElectrons: 391.351639
	SubspaceRotationAdjust: set factor to 0.184
ElecMinimize: Iter:  16  G: -1654.101611617536037  |grad|_K:  1.348e-06  alpha:  3.357e-01  linmin: -1.009e-04  t[s]:    545.87
	Linear fluid (dielectric constant: 78.4, screening length: 5.74355 Bohr) occupying 0.744282 of unit cell:	Completed after 8 iterations at t[s]:    555.40
	Linear fluid (dielectric constant: 78.4, screening length: 5.74355 Bohr) occupying 0.744281 of unit cell:	Completed after 0 iterations at t[s]:    564.15
	FillingsUpdate:  mu: -0.244750400  nElectrons: 391.341823
	SubspaceRotationAdjust: set factor to 0.186
ElecMinimize: Iter:  17  G: -1654.101650763992666  |grad|_K:  9.300e-07  alpha:  3.740e-01  linmin: -2.243e-04  t[s]:    575.36
	Linear fluid (dielectric constant: 78.4, screening length: 5.74355 Bohr) occupying 0.744280 of unit cell:	Completed after 7 iterations at t[s]:    585.05
	Linear fluid (dielectric constant: 78.4, screening length: 5.74355 Bohr) occupying 0.744280 of unit cell:	Completed after 0 iterations at t[s]:    593.24
	FillingsUpdate:  mu: -0.244750400  nElectrons: 391.353683
	SubspaceRotationAdjust: set factor to 0.175
ElecMinimize: Iter:  18  G: -1654.101669235229338  |grad|_K:  6.931e-07  alpha:  3.666e-01  linmin:  8.626e-05  t[s]:    603.21
	Linear fluid (dielectric constant: 78.4, screening length: 5.74355 Bohr) occupying 0.744280 of unit cell:	Completed after 3 iterations at t[s]:    612.23
	Linear fluid (dielectric constant: 78.4, screening length: 5.74355 Bohr) occupying 0.744280 of unit cell:	Completed after 0 iterations at t[s]:    621.42
	FillingsUpdate:  mu: -0.244750400  nElectrons: 391.354115
	SubspaceRotationAdjust: set factor to 0.211
ElecMinimize: Iter:  19  G: -1654.101678955301168  |grad|_K:  5.059e-07  alpha:  3.636e-01  linmin: -1.482e-05  t[s]:    632.25
	Linear fluid (dielectric constant: 78.4, screening length: 5.74355 Bohr) occupying 0.744279 of unit cell:	Completed after 6 iterations at t[s]:    641.94
	Linear fluid (dielectric constant: 78.4, screening length: 5.74355 Bohr) occupying 0.744279 of unit cell:	Completed after 0 iterations at t[s]:    650.11
	FillingsUpdate:  mu: -0.244750400  nElectrons: 391.348770
	SubspaceRotationAdjust: set factor to 0.207
ElecMinimize: Iter:  20  G: -1654.101684580972233  |grad|_K:  3.869e-07  alpha:  3.854e-01  linmin: -4.305e-05  t[s]:    660.06
	Linear fluid (dielectric constant: 78.4, screening length: 5.74355 Bohr) occupying 0.744278 of unit cell:	Completed after 3 iterations at t[s]:    669.38
	Linear fluid (dielectric constant: 78.4, screening length: 5.74355 Bohr) occupying 0.744278 of unit cell:	Completed after 0 iterations at t[s]:    678.89
	FillingsUpdate:  mu: -0.244750400  nElectrons: 391.352228
	SubspaceRotationAdjust: set factor to 0.243
ElecMinimize: Iter:  21  G: -1654.101687804272842  |grad|_K:  2.894e-07  alpha:  3.740e-01  linmin: -1.022e-05  t[s]:    690.06
	Linear fluid (dielectric constant: 78.4, screening length: 5.74355 Bohr) occupying 0.744278 of unit cell:	Completed after 3 iterations at t[s]:    699.05
	Linear fluid (dielectric constant: 78.4, screening length: 5.74355 Bohr) occupying 0.744278 of unit cell:	Completed after 0 iterations at t[s]:    707.29
	FillingsUpdate:  mu: -0.244750400  nElectrons: 391.354624
	SubspaceRotationAdjust: set factor to 0.258
ElecMinimize: Iter:  22  G: -1654.101689448928028  |grad|_K:  2.615e-07  alpha:  3.458e-01  linmin: -3.421e-05  t[s]:    717.83
	Linear fluid (dielectric constant: 78.4, screening length: 5.74355 Bohr) occupying 0.744278 of unit cell:	Completed after 3 iterations at t[s]:    726.54
	Linear fluid (dielectric constant: 78.4, screening length: 5.74355 Bohr) occupying 0.744278 of unit cell:	Completed after 0 iterations at t[s]:    735.50
	FillingsUpdate:  mu: -0.244750400  nElectrons: 391.351182
	SubspaceRotationAdjust: set factor to 0.265
ElecMinimize: Iter:  23  G: -1654.101690609494653  |grad|_K:  1.917e-07  alpha:  2.950e-01  linmin: -1.671e-06  t[s]:    746.54
	Linear fluid (dielectric constant: 78.4, screening length: 5.74355 Bohr) occupying 0.744278 of unit cell:	Completed after 1 iterations at t[s]:    755.98
	Linear fluid (dielectric constant: 78.4, screening length: 5.74355 Bohr) occupying 0.744278 of unit cell:	Completed after 0 iterations at t[s]:    764.48
	FillingsUpdate:  mu: -0.244750400  nElectrons: 391.350162
	SubspaceRotationAdjust: set factor to 0.311
ElecMinimize: Iter:  24  G: -1654.101691274399400  |grad|_K:  1.509e-07  alpha:  3.164e-01  linmin: -4.325e-05  t[s]:    774.31
	Linear fluid (dielectric constant: 78.4, screening length: 5.74355 Bohr) occupying 0.744276 of unit cell:	Completed after 1 iterations at t[s]:    782.91
	Linear fluid (dielectric constant: 78.4, screening length: 5.74355 Bohr) occupying 0.744276 of unit cell:	Completed after 0 iterations at t[s]:    791.42
	FillingsUpdate:  mu: -0.244750400  nElectrons: 391.352035
	SubspaceRotationAdjust: set factor to 0.382
ElecMinimize: Iter:  25  G: -1654.101691817691744  |grad|_K:  1.147e-07  alpha:  3.899e-01  linmin: -5.717e-05  t[s]:    802.69
	Linear fluid (dielectric constant: 78.4, screening length: 5.74355 Bohr) occupying 0.744274 of unit cell:	Completed after 2 iterations at t[s]:    812.50
	Linear fluid (dielectric constant: 78.4, screening length: 5.74355 Bohr) occupying 0.744275 of unit cell:	Completed after 0 iterations at t[s]:    821.33
	FillingsUpdate:  mu: -0.244750400  nElectrons: 391.353340
	SubspaceRotationAdjust: set factor to 0.289
ElecMinimize: Iter:  26  G: -1654.101691930780134  |grad|_K:  1.735e-07  alpha:  1.773e-01  linmin:  1.223e-04  t[s]:    831.17
	Linear fluid (dielectric constant: 78.4, screening length: 5.74355 Bohr) occupying 0.744273 of unit cell:	Completed after 0 iterations at t[s]:    839.50
	Linear fluid (dielectric constant: 78.4, screening length: 5.74355 Bohr) occupying 0.744274 of unit cell:	Completed after 0 iterations at t[s]:    848.67
	FillingsUpdate:  mu: -0.244750400  nElectrons: 391.353294
	SubspaceRotationAdjust: set factor to 0.258
ElecMinimize: Iter:  27  G: -1654.101692059031393  |grad|_K:  1.615e-07  alpha:  1.041e-01  linmin: -2.796e-08  t[s]:    860.34
	Linear fluid (dielectric constant: 78.4, screening length: 5.74355 Bohr) occupying 0.744273 of unit cell:	Completed after 2 iterations at t[s]:    869.72
	Linear fluid (dielectric constant: 78.4, screening length: 5.74355 Bohr) occupying 0.744273 of unit cell:	Completed after 0 iterations at t[s]:    878.55
	FillingsUpdate:  mu: -0.244750400  nElectrons: 391.352698
	SubspaceRotationAdjust: set factor to 0.192
ElecMinimize: Iter:  28  G: -1654.101692061525682  |grad|_K:  1.018e-07  alpha:  4.455e-02  linmin:  5.433e-05  t[s]:    888.98
	Linear fluid (dielectric constant: 78.4, screening length: 5.74355 Bohr) occupying 0.744273 of unit cell:	Completed after 0 iterations at t[s]:    897.58
ElecMinimize: 	Predicted alpha/alphaT>3.000000, increasing alphaT to 1.336369e-01.
	Linear fluid (dielectric constant: 78.4, screening length: 5.74355 Bohr) occupying 0.744272 of unit cell:	Completed after 0 iterations at t[s]:    906.23
	Linear fluid (dielectric constant: 78.4, screening length: 5.74355 Bohr) occupying 0.744272 of unit cell:	Completed after 0 iterations at t[s]:    915.33
	FillingsUpdate:  mu: -0.244750400  nElectrons: 391.352600
	SubspaceRotationAdjust: set factor to 0.264
ElecMinimize: Iter:  29  G: -1654.101692158461219  |grad|_K:  6.938e-08  alpha:  1.952e-01  linmin:  7.298e-08  t[s]:    926.17
	Linear fluid (dielectric constant: 78.4, screening length: 5.74355 Bohr) occupying 0.744271 of unit cell:	Completed after 0 iterations at t[s]:    934.75
	Linear fluid (dielectric constant: 78.4, screening length: 5.74355 Bohr) occupying 0.744270 of unit cell:	Completed after 0 iterations at t[s]:    943.06
	FillingsUpdate:  mu: -0.244750400  nElectrons: 391.353643
	SubspaceRotationAdjust: set factor to 0.333
ElecMinimize: Iter:  30  G: -1654.101692241530372  |grad|_K:  7.157e-08  alpha:  3.044e-01  linmin: -7.817e-09  t[s]:    952.67
	Linear fluid (dielectric constant: 78.4, screening length: 5.74355 Bohr) occupying 0.744268 of unit cell:	Completed after 2 iterations at t[s]:    962.20
	Linear fluid (dielectric constant: 78.4, screening length: 5.74355 Bohr) occupying 0.744269 of unit cell:	Completed after 0 iterations at t[s]:    971.78
	FillingsUpdate:  mu: -0.244750400  nElectrons: 391.354453
	SubspaceRotationAdjust: set factor to 0.258
ElecMinimize: Iter:  31  G: -1654.101692249730831  |grad|_K:  8.896e-08  alpha:  9.449e-02  linmin:  1.789e-04  t[s]:    983.00
	Linear fluid (dielectric constant: 78.4, screening length: 5.74355 Bohr) occupying 0.744268 of unit cell:	Completed after 0 iterations at t[s]:    991.43
	Linear fluid (dielectric constant: 78.4, screening length: 5.74355 Bohr) occupying 0.744269 of unit cell:	Completed after 0 iterations at t[s]:   1000.11
	FillingsUpdate:  mu: -0.244750400  nElectrons: 391.354669
	SubspaceRotationAdjust: set factor to 0.213
ElecMinimize: Iter:  32  G: -1654.101692260295067  |grad|_K:  7.735e-08  alpha:  5.592e-02  linmin: -5.682e-08  t[s]:   1010.09
	Linear fluid (dielectric constant: 78.4, screening length: 5.74355 Bohr) occupying 0.744268 of unit cell:	Completed after 0 iterations at t[s]:   1018.83
	Linear fluid (dielectric constant: 78.4, screening length: 5.74355 Bohr) occupying 0.744268 of unit cell:	Completed after 0 iterations at t[s]:   1027.63
	FillingsUpdate:  mu: -0.244750400  nElectrons: 391.354063
	SubspaceRotationAdjust: set factor to 0.246
ElecMinimize: Iter:  33  G: -1654.101692307677467  |grad|_K:  8.055e-08  alpha:  1.392e-01  linmin: -6.764e-07  t[s]:   1037.56
	Linear fluid (dielectric constant: 78.4, screening length: 5.74355 Bohr) occupying 0.744266 of unit cell:	Completed after 2 iterations at t[s]:   1046.67
	Linear fluid (dielectric constant: 78.4, screening length: 5.74355 Bohr) occupying 0.744267 of unit cell:	Completed after 0 iterations at t[s]:   1055.32
ElecMinimize: 	Step increased G by 6.049277e-08, reducing alpha to 2.310384e-03.
	Linear fluid (dielectric constant: 78.4, screening length: 5.74355 Bohr) occupying 0.744268 of unit cell:	Completed after 0 iterations at t[s]:   1073.22
ElecMinimize: 	Step increased G by 3.833134e-08, reducing alpha to 2.310384e-04.
	Linear fluid (dielectric constant: 78.4, screening length: 5.74355 Bohr) occupying 0.744268 of unit cell:	Completed after 0 iterations at t[s]:   1090.59
ElecMinimize: 	Step increased G by 3.619425e-08, reducing alpha to 2.310384e-05.
ElecMinimize: 	Step failed to reduce G after 3 attempts. Quitting step.
ElecMinimize: 	Undoing step.
	Linear fluid (dielectric constant: 78.4, screening length: 5.74355 Bohr) occupying 0.744268 of unit cell:	Completed after 0 iterations at t[s]:   1109.60
ElecMinimize: 	Step failed: resetting search direction.
	FillingsUpdate:  mu: -0.244750400  nElectrons: 391.354061
	SubspaceRotationAdjust: set factor to 0.175
ElecMinimize: Iter:  34  G: -1654.101692271512093  |grad|_K:  9.989e-08  alpha:  2.310e-05
	Linear fluid (dielectric constant: 78.4, screening length: 5.74355 Bohr) occupying 0.744267 of unit cell:	Completed after 2 iterations at t[s]:   1129.17
	Linear fluid (dielectric constant: 78.4, screening length: 5.74355 Bohr) occupying 0.744267 of unit cell:	Completed after 0 iterations at t[s]:   1137.31
	FillingsUpdate:  mu: -0.244750400  nElectrons: 391.354715
	SubspaceRotationAdjust: set factor to 0.145
ElecMinimize: Iter:  35  G: -1654.101692272706259  |grad|_K:  4.182e-08  alpha:  7.546e-02  linmin: -1.165e-03  t[s]:   1147.26
	Linear fluid (dielectric constant: 78.4, screening length: 5.74355 Bohr) occupying 0.744267 of unit cell:	Completed after 0 iterations at t[s]:   1157.04
ElecMinimize: 	Predicted alpha/alphaT>3.000000, increasing alphaT to 2.263799e-01.
	Linear fluid (dielectric constant: 78.4, screening length: 5.74355 Bohr) occupying 0.744267 of unit cell:	Completed after 0 iterations at t[s]:   1166.76
	Linear fluid (dielectric constant: 78.4, screening length: 5.74355 Bohr) occupying 0.744267 of unit cell:	Completed after 0 iterations at t[s]:   1175.78
	FillingsUpdate:  mu: -0.244750400  nElectrons: 391.354961
	SubspaceRotationAdjust: set factor to 0.158
ElecMinimize: Iter:  36  G: -1654.101692301987896  |grad|_K:  2.888e-08  alpha:  2.455e-01  linmin:  1.659e-06  t[s]:   1185.78
	Linear fluid (dielectric constant: 78.4, screening length: 5.74355 Bohr) occupying 0.744267 of unit cell:	Completed after 0 iterations at t[s]:   1194.12
	Linear fluid (dielectric constant: 78.4, screening length: 5.74355 Bohr) occupying 0.744267 of unit cell:	Completed after 0 iterations at t[s]:   1202.54
	FillingsUpdate:  mu: -0.244750400  nElectrons: 391.354971
	SubspaceRotationAdjust: set factor to 0.178
ElecMinimize: Iter:  37  G: -1654.101692321118435  |grad|_K:  2.079e-08  alpha:  4.047e-01  linmin:  4.788e-08  t[s]:   1213.25
	Linear fluid (dielectric constant: 78.4, screening length: 5.74355 Bohr) occupying 0.744267 of unit cell:	Completed after 0 iterations at t[s]:   1221.91
	Linear fluid (dielectric constant: 78.4, screening length: 5.74355 Bohr) occupying 0.744267 of unit cell:	Completed after 0 iterations at t[s]:   1230.08
	FillingsUpdate:  mu: -0.244750400  nElectrons: 391.354774
	SubspaceRotationAdjust: set factor to 0.2
ElecMinimize: Iter:  38  G: -1654.101692331321829  |grad|_K:  1.995e-08  alpha:  4.151e-01  linmin: -1.743e-06  t[s]:   1240.02
	Linear fluid (dielectric constant: 78.4, screening length: 5.74355 Bohr) occupying 0.744266 of unit cell:	Completed after 0 iterations at t[s]:   1248.55
	Linear fluid (dielectric constant: 78.4, screening length: 5.74355 Bohr) occupying 0.744266 of unit cell:	Completed after 0 iterations at t[s]:   1256.92
	FillingsUpdate:  mu: -0.244750400  nElectrons: 391.354447
	SubspaceRotationAdjust: set factor to 0.241
ElecMinimize: Iter:  39  G: -1654.101692339054807  |grad|_K:  1.491e-08  alpha:  3.416e-01  linmin:  2.484e-07  t[s]:   1267.41
	Linear fluid (dielectric constant: 78.4, screening length: 5.74355 Bohr) occupying 0.744266 of unit cell:	Completed after 0 iterations at t[s]:   1276.48
	Linear fluid (dielectric constant: 78.4, screening length: 5.74355 Bohr) occupying 0.744266 of unit cell:	Completed after 0 iterations at t[s]:   1284.98
ElecMinimize: 	Step increased G by 1.176682e-08, reducing alpha to 7.747532e-03.
	Linear fluid (dielectric constant: 78.4, screening length: 5.74355 Bohr) occupying 0.744266 of unit cell:	Completed after 0 iterations at t[s]:   1302.19
ElecMinimize: 	Step increased G by 1.274884e-08, reducing alpha to 7.747532e-04.
	Linear fluid (dielectric constant: 78.4, screening length: 5.74355 Bohr) occupying 0.744266 of unit cell:	Completed after 0 iterations at t[s]:   1319.82
ElecMinimize: 	Step increased G by 1.287685e-08, reducing alpha to 7.747532e-05.
ElecMinimize: 	Step failed to reduce G after 3 attempts. Quitting step.
ElecMinimize: 	Undoing step.
	Linear fluid (dielectric constant: 78.4, screening length: 5.74355 Bohr) occupying 0.744266 of unit cell:	Completed after 0 iterations at t[s]:   1339.24
ElecMinimize: 	Step failed: resetting search direction.
	FillingsUpdate:  mu: -0.244750400  nElectrons: 391.354447
	SubspaceRotationAdjust: set factor to 0.252
ElecMinimize: Iter:  40  G: -1654.101692326188640  |grad|_K:  1.496e-08  alpha:  7.748e-05
	Linear fluid (dielectric constant: 78.4, screening length: 5.74355 Bohr) occupying 0.744266 of unit cell:	Completed after 0 iterations at t[s]:   1358.16
	Linear fluid (dielectric constant: 78.4, screening length: 5.74355 Bohr) occupying 0.744266 of unit cell:	Completed after 0 iterations at t[s]:   1366.39
	FillingsUpdate:  mu: -0.244750400  nElectrons: 391.354561
	SubspaceRotationAdjust: set factor to 0.338
ElecMinimize: Iter:  41  G: -1654.101692331451204  |grad|_K:  9.577e-09  alpha:  4.164e-01  linmin:  4.063e-06  t[s]:   1376.41
	Linear fluid (dielectric constant: 78.4, screening length: 5.74355 Bohr) occupying 0.744266 of unit cell:	Completed after 0 iterations at t[s]:   1385.08
	Linear fluid (dielectric constant: 78.4, screening length: 5.74355 Bohr) occupying 0.744266 of unit cell:	Completed after 0 iterations at t[s]:   1393.86
	FillingsUpdate:  mu: -0.244750400  nElectrons: 391.354819
	SubspaceRotationAdjust: set factor to 0.444
ElecMinimize: Iter:  42  G: -1654.101692335045755  |grad|_K:  8.792e-09  alpha:  6.830e-01  linmin: -2.875e-06  t[s]:   1404.63
ElecMinimize: Converged (|Delta G|<1.000000e-08 for 2 iters).
Setting wave functions to eigenvectors of Hamiltonian

# Ionic positions in lattice coordinates:
ion Te   0.222222250000000   0.222222250000000   0.609293118593181 0
ion Te   0.555555583333333   0.222222250000000   0.609293118593181 0
ion Te   0.888888916666666   0.222222250000000   0.609293118593181 0
ion Te   0.222222250000000   0.555555583333333   0.609293118593181 0
ion Te   0.555555583333333   0.555555583333333   0.609293118593181 0
ion Te   0.888888916666666   0.555555583333333   0.609293118593181 0
ion Te   0.222222250000000   0.888888916666666   0.609293118593181 0
ion Te   0.555555583333333   0.888888916666666   0.609293118593181 0
ion Te   0.888888916666666   0.888888916666666   0.609293118593181 0
ion Te   0.222222250000000   0.222222250000000   0.390691505753834 0
ion Te   0.555555583333333   0.222222250000000   0.390691505753834 0
ion Te   0.888888916666666   0.222222250000000   0.390691505753834 0
ion Te   0.222222250000000   0.555555583333333   0.390691505753834 0
ion Te   0.555555583333333   0.555555583333333   0.390691505753834 0
ion Te   0.888888916666666   0.555555583333333   0.390691505753834 0
ion Te   0.222222250000000   0.888888916666666   0.390691505753834 0
ion Te   0.555555583333333   0.888888916666666   0.390691505753834 0
ion Te   0.888888916666666   0.888888916666666   0.390691505753834 0
ion Pt   0.111111138888889   0.111111138888889   0.540912908987382 0
ion Pt   0.444444472222222   0.111111138888889   0.540912908987382 0
ion Pt   0.777777805555555   0.111111138888889   0.540912908987382 0
ion Pt   0.111111138888889   0.444444472222222   0.540912908987382 0
ion Pt   0.444444472222222   0.444444472222222   0.540912908987382 0
ion Pt   0.777777805555555   0.444444472222222   0.540912908987382 0
ion Pt   0.111111138888889   0.777777805555555   0.540912908987382 0
ion Pt   0.444444472222222   0.777777805555555   0.540912908987382 0
ion Pt   0.777777805555555   0.777777805555555   0.540912908987382 0
ion Pt   0.000000027777778   0.000000027777778   0.459102466665603 0
ion Pt   0.333333361111111   0.000000027777778   0.459102466665603 0
ion Pt   0.666666694444444   0.000000027777778   0.459102466665603 0
ion Pt   0.000000027777778   0.333333361111111   0.459102466665603 0
ion Pt   0.333333361111111   0.333333361111111   0.459102466665603 0
ion Pt   0.666666694444444   0.333333361111111   0.459102466665603 0
ion Pt   0.000000027777778   0.666666694444444   0.459102466665603 0
ion Pt   0.333333361111111   0.666666694444444   0.459102466665603 0
ion Pt   0.666666694444444   0.666666694444444   0.459102466665603 0


# Forces in Lattice coordinates:
force Te  -0.000000000000000  -0.000000000000000   0.128880146542716 0
force Te  -0.000000000000000  -0.000000000000000   0.128880146542716 0
force Te  -0.000000000000000  -0.000000000000000   0.128880146542716 0
force Te  -0.000000000000000   0.000000000000000   0.128880146542716 0
force Te   0.000000000000000  -0.000000000000000   0.128880146542830 0
force Te  -0.000000000000000  -0.000000000000000   0.128880146542716 0
force Te   0.000000000000000  -0.000000000000000   0.128880146542830 0
force Te   0.000000000000000  -0.000000000000000   0.128880146542830 0
force Te   0.000000000000000  -0.000000000000000   0.128880146542830 0
force Te   0.000000000000000  -0.000000000000000  -0.126173793260854 0
force Te  -0.000000000000000   0.000000000000000  -0.126173793260514 0
force Te  -0.000000000000000   0.000000000000000  -0.126173793260740 0
force Te   0.000000000000000   0.000000000000000  -0.126173793260740 0
force Te   0.000000000000000   0.000000000000000  -0.126173793260627 0
force Te  -0.000000000000000   0.000000000000000  -0.126173793260854 0
force Te   0.000000000000000   0.000000000000000  -0.126173793260741 0
force Te   0.000000000000000   0.000000000000000  -0.126173793260855 0
force Te   0.000000000000000   0.000000000000000  -0.126173793260741 0
force Pt  -0.000000000000000   0.000000000000000  -0.102805067045732 0
force Pt   0.000000000000000   0.000000000000000  -0.102805067045846 0
force Pt   0.000000000000000   0.000000000000000  -0.102805067045846 0
force Pt   0.000000000000000   0.000000000000000  -0.102805067045618 0
force Pt  -0.000000000000000   0.000000000000000  -0.102805067045846 0
force Pt  -0.000000000000000  -0.000000000000000  -0.102805067045732 0
force Pt   0.000000000000000   0.000000000000000  -0.102805067045732 0
force Pt   0.000000000000000   0.000000000000000  -0.102805067045732 0
force Pt   0.000000000000000   0.000000000000000  -0.102805067045732 0
force Pt   0.000000000000000   0.000000000000000   0.100112580142967 0
force Pt   0.000000000000000   0.000000000000000   0.100112580142967 0
force Pt  -0.000000000000000   0.000000000000000   0.100112580142967 0
force Pt  -0.000000000000000  -0.000000000000000   0.100112580142967 0
force Pt   0.000000000000000   0.000000000000000   0.100112580142967 0
force Pt  -0.000000000000000  -0.000000000000000   0.100112580142967 0
force Pt  -0.000000000000000  -0.000000000000000   0.100112580143080 0
force Pt  -0.000000000000000  -0.000000000000000   0.100112580142967 0
force Pt   0.000000000000000  -0.000000000000000   0.100112580143080 0

# Energy components:
   A_diel =       -0.4593783046426640
   Eewald =     9306.3421512915920175
       EH =    10657.1715645426593255
     Eloc =   -21934.3899101556999085
      Enl =      -76.6916610734958226
      Exc =     -641.0084262921490108
 Exc_core =      384.2358789772987961
       KE =      554.9143125557191070
  MuShift =        0.0595120870623746
-------------------------------------
     Etot =    -1749.8259563716533194
       TS =        0.0599843737996436
-------------------------------------
        F =    -1749.8859407454528991
      muN =      -95.7842484104071730
-------------------------------------
        G =    -1654.1016923350457546

IonicMinimize: Iter:   0  G: -1654.101692335045755  |grad|_K:  0.000e+00  t[s]:   1410.94
IonicMinimize: Converged (|grad|_K<1.000000e-04).

#--- Lowdin population analysis ---
# oxidation-state Te +1.186 +1.186 +1.186 +1.186 +1.186 +1.186 +1.186 +1.186 +1.186 +1.185 +1.185 +1.185 +1.185 +1.185 +1.185 +1.185 +1.185 +1.185
# oxidation-state Pt -0.861 -0.861 -0.861 -0.861 -0.861 -0.861 -0.861 -0.861 -0.861 -0.861 -0.861 -0.861 -0.861 -0.861 -0.861 -0.861 -0.861 -0.861


Dumping 'NbTe2.fillings' ... done
Dumping 'NbTe2.wfns' ... done
Dumping 'NbTe2.fluidState' ... done
Dumping 'NbTe2.eigenvals' ... done
End date and time: Sun Jul  5 21:24:38 2020  (Duration: 0-0:23:35.56)
Done!
