
*************** JDFTx 1.5.0  ***************

Start date and time: Tue Feb  9 10:01:53 2021
Executable jdftx_gpu with command-line: -i Charged.in -o Charged.out
Running on hosts (process indices):  amax (0-6)
Divided in process groups (process indices):  0 (0)  1 (1)  2 (2)  3 (3)  4 (4)  5 (5)  6 (6)
gpuInit: Found compatible cuda device 0 'Tesla K80'
gpuInit: Found compatible cuda device 1 'Tesla K80'
gpuInit: Found compatible cuda device 2 'Tesla K80'
gpuInit: Found compatible cuda device 3 'Tesla K80'
gpuInit: Found compatible cuda device 4 'Tesla K80'
gpuInit: Found compatible cuda device 5 'Tesla K80'
gpuInit: Found compatible cuda device 6 'Tesla K80'
gpuInit: Selected device 0
Resource initialization completed at t[s]:      3.31
Run totals: 7 processes, 24 threads, 7 GPUs


Input parsed successfully to the following command list (including defaults):

basis kpoint-dependent
cache-projectors no
coords-type Lattice
core-overlap-check none
coulomb-interaction Slab 001
coulomb-truncation-embed 0.5 0.5 0.5
davidson-band-ratio 1.1
dump End State
dump-name NbTe2.$VAR
elec-cutoff 20
elec-eigen-algo Davidson
elec-ex-corr gga-PBE
elec-initial-charge -0.500000
elec-initial-magnetization 20.000000 no
elec-smearing Gauss 0.0073499
electronic-minimize  \
	dirUpdateScheme      FletcherReeves \
	linminMethod         DirUpdateRecommended \
	nIterations          200 \
	history              15 \
	knormThreshold       0 \
	energyDiffThreshold  1e-08 \
	nEnergyDiff          2 \
	alphaTstart          1 \
	alphaTmin            1e-10 \
	updateTestStepSize   yes \
	alphaTreduceFactor   0.1 \
	alphaTincreaseFactor 3 \
	nAlphaAdjustMax      3 \
	wolfeEnergy          0.0001 \
	wolfeGradient        0.9 \
	fdTest               no
exchange-regularization WignerSeitzTruncated
fluid LinearPCM 298.000000 1.013250
fluid-anion F- 1 MeanFieldLJ \
	epsBulk 1 \
	pMol 0 \
	epsInf 1 \
	Pvap 0 \
	sigmaBulk 0 \
	Rvdw 2.24877 \
	Res 0 \
	tauNuc 343133
fluid-cation Na+ 1 MeanFieldLJ \
	epsBulk 1 \
	pMol 0 \
	epsInf 1 \
	Pvap 0 \
	sigmaBulk 0 \
	Rvdw 2.19208 \
	Res 0 \
	tauNuc 343133
fluid-ex-corr lda-TF lda-PZ
fluid-gummel-loop 10 1.000000e-05
fluid-minimize  \
	dirUpdateScheme      PolakRibiere \
	linminMethod         DirUpdateRecommended \
	nIterations          400 \
	history              15 \
	knormThreshold       1e-11 \
	energyDiffThreshold  0 \
	nEnergyDiff          2 \
	alphaTstart          1 \
	alphaTmin            1e-10 \
	updateTestStepSize   yes \
	alphaTreduceFactor   0.1 \
	alphaTincreaseFactor 3 \
	nAlphaAdjustMax      6 \
	wolfeEnergy          0.0001 \
	wolfeGradient        0.9 \
	fdTest               no
fluid-solvent H2O 55.338 ScalarEOS \
	epsBulk 78.4 \
	pMol 0.92466 \
	epsInf 1.77 \
	Pvap 1.06736e-10 \
	sigmaBulk 4.62e-05 \
	Rvdw 2.61727 \
	Res 1.42 \
	tauNuc 343133 \
	poleEl 15 7 1
forces-output-coords Positions
initial-state NbTe2.$VAR
ion Nb   0.000002222868056  -0.000002229472222   0.500000000000000 1
ion Nb   0.250002222868056  -0.000002229472222   0.500000000000000 1
ion Nb   0.500002222868056  -0.000002229472222   0.500000000000000 1
ion Nb   0.750002222868056  -0.000002229472222   0.500000000000000 1
ion Nb   0.000002222868056   0.249997770527778   0.500000000000000 1
ion Nb   0.250002222868056   0.249997770527778   0.500000000000000 1
ion Nb   0.500002222868056   0.249997770527778   0.500000000000000 1
ion Nb   0.750002222868056   0.249997770527778   0.500000000000000 1
ion Nb   0.000002222868056   0.499997770527778   0.500000000000000 1
ion Nb   0.250002222868056   0.499997770527778   0.500000000000000 1
ion Nb   0.500002222868056   0.499997770527778   0.500000000000000 1
ion Nb   0.750002222868056   0.499997770527778   0.500000000000000 1
ion Nb   0.000002222868056   0.749997770527778   0.500000000000000 1
ion Nb   0.250002222868056   0.749997770527778   0.500000000000000 1
ion Nb   0.500002222868056   0.749997770527778   0.500000000000000 1
ion Nb   0.750002222868056   0.749997770527778   0.500000000000000 1
ion S   0.166668889534722   0.083331103861111   0.413537293692580 1
ion S   0.166668889534722   0.083331103861111   0.586462706307420 1
ion S   0.416668889534722   0.083331103861111   0.413537293692580 1
ion S   0.416668889534722   0.083331103861111   0.586462706307420 1
ion S   0.666668889534722   0.083331103861111   0.413537293692580 1
ion S   0.666668889534722   0.083331103861111   0.586462706307420 1
ion S   0.916668889534722   0.083331103861111   0.413537293692580 1
ion S   0.916668889534722   0.083331103861111   0.586462706307420 1
ion S   0.166668889534722   0.333331103861111   0.413537293692580 1
ion S   0.166668889534722   0.333331103861111   0.586462706307420 1
ion S   0.416668889534722   0.333331103861111   0.413537293692580 1
ion S   0.416668889534722   0.333331103861111   0.586462706307420 1
ion S   0.666668889534722   0.333331103861111   0.413537293692580 1
ion S   0.666668889534722   0.333331103861111   0.586462706307420 1
ion S   0.916668889534722   0.333331103861111   0.413537293692580 1
ion S   0.916668889534722   0.333331103861111   0.586462706307420 1
ion S   0.166668889534722   0.583331103861111   0.413537293692580 1
ion S   0.166668889534722   0.583331103861111   0.586462706307420 1
ion S   0.416668889534722   0.583331103861111   0.413537293692580 1
ion S   0.416668889534722   0.583331103861111   0.586462706307420 1
ion S   0.666668889534722   0.583331103861111   0.413537293692580 1
ion S   0.666668889534722   0.583331103861111   0.586462706307420 1
ion S   0.916668889534722   0.583331103861111   0.413537293692580 1
ion S   0.916668889534722   0.583331103861111   0.586462706307420 1
ion S   0.166668889534722   0.833331103861111   0.413537293692580 1
ion S   0.166668889534722   0.833331103861111   0.586462706307420 1
ion S   0.416668889534722   0.833331103861111   0.413537293692580 1
ion S   0.416668889534722   0.833331103861111   0.586462706307420 1
ion S   0.666668889534722   0.833331103861111   0.413537293692580 1
ion S   0.666668889534722   0.833331103861111   0.586462706307420 1
ion S   0.916668889534722   0.833331103861111   0.413537293692580 1
ion S   0.916668889534722   0.833331103861111   0.586462706307420 1
ion-species GBRV/$ID_pbe.uspp
ion-width Ecut
ionic-minimize  \
	dirUpdateScheme      L-BFGS \
	linminMethod         DirUpdateRecommended \
	nIterations          500 \
	history              15 \
	knormThreshold       0.0001 \
	energyDiffThreshold  1e-06 \
	nEnergyDiff          2 \
	alphaTstart          1 \
	alphaTmin            1e-10 \
	updateTestStepSize   yes \
	alphaTreduceFactor   0.1 \
	alphaTincreaseFactor 3 \
	nAlphaAdjustMax      3 \
	wolfeEnergy          0.0001 \
	wolfeGradient        0.9 \
	fdTest               no
kpoint   0.000000000000   0.000000000000   0.000000000000  1.00000000000000
kpoint-folding 4 4 1 
latt-move-scale 1 1 1
latt-scale 1.88973 1.88973 1.88973 
lattice Triclinic 13.3122 13.3122 18.1288 90 90 120
lattice-minimize  \
	dirUpdateScheme      L-BFGS \
	linminMethod         DirUpdateRecommended \
	nIterations          0 \
	history              15 \
	knormThreshold       0 \
	energyDiffThreshold  1e-06 \
	nEnergyDiff          2 \
	alphaTstart          1 \
	alphaTmin            1e-10 \
	updateTestStepSize   yes \
	alphaTreduceFactor   0.1 \
	alphaTincreaseFactor 3 \
	nAlphaAdjustMax      3 \
	wolfeEnergy          0.0001 \
	wolfeGradient        0.9 \
	fdTest               no
lcao-params -1 1e-06 0.0073499
pcm-variant CANDLE
spintype z-spin
subspace-rotation-factor 1 yes
symmetries automatic
symmetry-threshold 0.0001



---------- Setting up symmetries ----------

Found 24 point-group symmetries of the bravais lattice
Found 192 space-group symmetries with basis
Applied RMS atom displacement 6.77587e-15 bohrs to make symmetries exact.

---------- Initializing the Grid ----------
R = 
[    25.1564   -12.5782          0  ]
[          0    21.7861          0  ]
[          0          0    34.2585  ]
unit cell volume = 18775.7
G =
[   0.249765   0.144202         -0  ]
[          0   0.288404          0  ]
[          0         -0   0.183405  ]
Minimum fftbox size, Smin = [  104  104  140  ]
Chosen fftbox size, S = [  108  108  140  ]

---------- Exchange Correlation functional ----------
Initalized PBE GGA exchange.
Initalized PBE GGA correlation.

---------- Setting up pseudopotentials ----------
Width of ionic core gaussian charges (only for fluid interactions / plotting) set to 0.397384

Reading pseudopotential file '/home/guoxy/vasp/jdftx-1.5.0/build/pseudopotentials/GBRV/nb_pbe.uspp':
  Title: Nb.  Created by USPP 7.3.6 on 14-9-2013
  Reference state energy: -58.592548.  13 valence electrons in orbitals:
    |400>  occupation: 2  eigenvalue: -2.145853
    |410>  occupation: 6  eigenvalue: -1.268635
    |420>  occupation: 4  eigenvalue: -0.111734
    |500>  occupation: 1  eigenvalue: -0.146332
    |510>  occupation: 0  eigenvalue: -0.040820
  lMax: 2  lLocal: 3  QijEcut: 5
  6 projectors sampled on a log grid with 627 points:
    l: 0  eig: -2.145854  rCut: 1.8
    l: 0  eig: -0.146334  rCut: 1.8
    l: 1  eig: -1.268634  rCut: 2
    l: 1  eig: 0.150000  rCut: 2
    l: 2  eig: -0.040820  rCut: 2.2
    l: 2  eig: 0.150000  rCut: 2.2
  Partial core density with radius 1.2
  Transforming core density to a uniform radial grid of dG=0.02 with 1499 points.
  Transforming local potential to a uniform radial grid of dG=0.02 with 1499 points.
  Transforming nonlocal projectors to a uniform radial grid of dG=0.02 with 432 points.
  Transforming density augmentations to a uniform radial grid of dG=0.02 with 1499 points.
  Transforming atomic orbitals to a uniform radial grid of dG=0.02 with 432 points.
  Core radius for overlap checks: 2.20 bohrs.

Reading pseudopotential file '/home/guoxy/vasp/jdftx-1.5.0/build/pseudopotentials/GBRV/s_pbe.uspp':
  Title: S.  Created by USPP 7.3.6 on 1-4-15
  Reference state energy: -11.898476.  6 valence electrons in orbitals:
    |300>  occupation: 2  eigenvalue: -0.634167
    |310>  occupation: 4  eigenvalue: -0.257568
  lMax: 2  lLocal: 3  QijEcut: 6
  6 projectors sampled on a log grid with 635 points:
    l: 0  eig: -0.634161  rCut: 1.5
    l: 0  eig: 1.500000  rCut: 1.5
    l: 1  eig: -0.257567  rCut: 1.5
    l: 1  eig: 1.500000  rCut: 1.5
    l: 2  eig: -1.000000  rCut: 1.5
    l: 2  eig: 1.500000  rCut: 1.5
  Partial core density with radius 1.15
  Transforming core density to a uniform radial grid of dG=0.02 with 1499 points.
  Transforming local potential to a uniform radial grid of dG=0.02 with 1499 points.
  Transforming nonlocal projectors to a uniform radial grid of dG=0.02 with 432 points.
  Transforming density augmentations to a uniform radial grid of dG=0.02 with 1499 points.
  Transforming atomic orbitals to a uniform radial grid of dG=0.02 with 432 points.
  Core radius for overlap checks: 1.50 bohrs.

Initialized 2 species with 48 total atoms.

Folded 1 k-points by 4x4x1 to 16 k-points.

---------- Setting up k-points, bands, fillings ----------
Adding inversion symmetry to k-mesh for non-inversion-symmetric unit cell.
Reduced to 4 k-points under symmetry. 
Computing the number of bands and number of electrons
Calculating initial fillings.
nElectrons: 399.500000   nBands: 336   nStates: 8

----- Setting up reduced wavefunction bases (one per k-point) -----
average nbasis = 80209.688 , ideal nbasis = 80211.172

---------- Setting up coulomb interaction ----------
Fluid mode embedding: using embedded box, but periodic Coulomb kernel.
(Fluid response is responsible for (approximate) separation between periodic images.)
Setting up double-sized grid for truncated Coulomb potentials:
R = 
[    25.1564   -12.5782          0  ]
[          0    21.7861          0  ]
[          0          0    68.5169  ]
unit cell volume = 37551.4
G =
[   0.249765   0.144202         -0  ]
[          0   0.288404          0  ]
[          0         -0  0.0917027  ]
Chosen fftbox size, S = [  108  108  280  ]
Integer grid location selected as the embedding center:
   Grid: [  54  54  70  ]
   Lattice: [  0.5  0.5  0.5  ]
   Cartesian: [  6.2891  10.893  17.1292  ]
Constructing Wigner-Seitz cell: 8 faces (6 quadrilaterals, 2 hexagons)
Range-separation parameter for embedded mesh potentials due to point charges: 0.624065 bohrs.

Initializing van der Waals corrections
	NOTE: vdW corrections apply only for interactions with fluid.
	Nb:  C6:  427.91 Eh-a0^6  R0: 3.097 a0
	 S:  C6:   96.61 Eh-a0^6  R0: 3.180 a0

---------- Setting up ewald sum ----------
Optimum gaussian width for ewald sums = 7.007748 bohr.
Real space sum over 605 unit cells with max indices [  5  5  2  ]
Reciprocal space sum over 7425 terms with max indices [  7  7  16  ]

---------- Allocating electronic variables ----------
Initializing wave functions:  linear combination of atomic orbitals
Nb pseudo-atom occupations:   s ( 2 2 )  p ( 6 0 )  d ( 3 )
S pseudo-atom occupations:   s ( 2 )  p ( 4 )
	FillingsUpdate:  mu: -0.582376260  nElectrons: 399.500000  magneticMoment: [ Abs: 8.11956  Tot: +8.11956 ]
LCAOMinimize: Iter:   0  F: -1227.6198082188620901  |grad|_K:  8.921e-03  alpha:  1.000e+00
	FillingsUpdate:  mu: -0.431019018  nElectrons: 399.500000  magneticMoment: [ Abs: 7.83652  Tot: +7.82648 ]
LCAOMinimize: Iter:   1  F: -1238.6454138436404264  |grad|_K:  7.083e-03  alpha:  1.444e-01  linmin: -3.556e-01  cgtest:  7.307e-01  t[s]:    142.12
LCAOMinimize: 	Predicted alpha/alphaT>3.000000, increasing alphaT to 4.332542e-01.
	FillingsUpdate:  mu: -0.358629852  nElectrons: 399.500000  magneticMoment: [ Abs: 7.54816  Tot: +7.53917 ]
LCAOMinimize: Iter:   2  F: -1242.8430767895504232  |grad|_K:  4.910e-03  alpha:  9.119e-02  linmin: -3.874e-01  cgtest:  8.581e-01  t[s]:    197.93
LCAOMinimize: Encountered beta<0, resetting CG.
LCAOMinimize: 	Predicted alpha/alphaT>3.000000, increasing alphaT to 2.735769e-01.
	FillingsUpdate:  mu: -0.250548578  nElectrons: 399.500000  magneticMoment: [ Abs: 7.01320  Tot: +7.01137 ]
LCAOMinimize: Iter:   3  F: -1245.2683865587323453  |grad|_K:  6.616e-04  alpha:  1.701e-01  linmin: -3.999e-01  cgtest:  8.069e-01  t[s]:    253.49
LCAOMinimize: Encountered beta<0, resetting CG.
	FillingsUpdate:  mu: -0.226956137  nElectrons: 399.500000  magneticMoment: [ Abs: 6.69992  Tot: +6.69938 ]
LCAOMinimize: Iter:   4  F: -1245.3008679229587869  |grad|_K:  1.256e-04  alpha:  1.627e-01  linmin:  4.834e-02  cgtest: -1.796e-01  t[s]:    295.34
LCAOMinimize: 	Predicted alpha/alphaT>3.000000, increasing alphaT to 4.880699e-01.
	FillingsUpdate:  mu: -0.227947772  nElectrons: 399.500000  magneticMoment: [ Abs: 3.20206  Tot: +2.93149 ]
LCAOMinimize: Iter:   5  F: -1245.3087096849330919  |grad|_K:  1.003e-04  alpha:  1.257e+00  linmin:  3.931e-02  cgtest:  1.537e-01  t[s]:    350.35
	FillingsUpdate:  mu: -0.232833827  nElectrons: 399.500000  magneticMoment: [ Abs: 2.60429  Tot: +2.17141 ]
LCAOMinimize: Iter:   6  F: -1245.3099085173168987  |grad|_K:  8.598e-05  alpha:  2.954e-01  linmin:  1.256e-02  cgtest:  2.266e-02  t[s]:    392.02
	FillingsUpdate:  mu: -0.229273491  nElectrons: 399.500000  magneticMoment: [ Abs: 1.33498  Tot: +0.59446 ]
LCAOMinimize: Iter:   7  F: -1245.3119455898906836  |grad|_K:  2.300e-05  alpha:  6.213e-01  linmin: -1.127e-02  cgtest: -5.483e-02  t[s]:    434.21
	FillingsUpdate:  mu: -0.229959040  nElectrons: 399.500000  magneticMoment: [ Abs: 0.20400  Tot: +0.16825 ]
LCAOMinimize: Iter:   8  F: -1245.3123205797378432  |grad|_K:  6.659e-06  alpha:  1.531e+00  linmin: -1.961e-02  cgtest: -9.523e-02  t[s]:    476.18
	FillingsUpdate:  mu: -0.229473574  nElectrons: 399.500000  magneticMoment: [ Abs: 0.11248  Tot: +0.10804 ]
LCAOMinimize: Iter:   9  F: -1245.3123345709841487  |grad|_K:  7.446e-06  alpha:  6.824e-01  linmin: -3.904e-04  cgtest: -5.645e-03  t[s]:    517.89
	FillingsUpdate:  mu: -0.229691002  nElectrons: 399.500000  magneticMoment: [ Abs: 0.07323  Tot: +0.07312 ]
LCAOMinimize: Iter:  10  F: -1245.3123403263819000  |grad|_K:  1.336e-06  alpha:  2.283e-01  linmin:  3.137e-04  cgtest:  2.007e-02  t[s]:    559.95
LCAOMinimize: 	Predicted alpha/alphaT>3.000000, increasing alphaT to 6.848758e-01.
	FillingsUpdate:  mu: -0.229712629  nElectrons: 399.500000  magneticMoment: [ Abs: 0.02302  Tot: +0.02173 ]
LCAOMinimize: Iter:  11  F: -1245.3123415112058865  |grad|_K:  5.775e-07  alpha:  1.461e+00  linmin: -9.714e-05  cgtest: -2.729e-03  t[s]:    614.94
	FillingsUpdate:  mu: -0.229678932  nElectrons: 399.500000  magneticMoment: [ Abs: 0.01783  Tot: +0.01501 ]
LCAOMinimize: Iter:  12  F: -1245.3123415900688542  |grad|_K:  7.242e-07  alpha:  5.211e-01  linmin: -1.254e-05  cgtest:  4.739e-04  t[s]:    657.07
	FillingsUpdate:  mu: -0.229707173  nElectrons: 399.500000  magneticMoment: [ Abs: 0.00986  Tot: +0.00533 ]
LCAOMinimize: Iter:  13  F: -1245.3123416850482954  |grad|_K:  2.201e-07  alpha:  3.984e-01  linmin: -3.995e-05  cgtest:  1.837e-04  t[s]:    699.14
LCAOMinimize: Converged (|Delta F|<1.000000e-06 for 2 iters).
----- createFluidSolver() ----- (Fluid-side solver setup)
   Initializing fluid molecule 'H2O'
     Initializing site 'O'
       Electron density: proportional to exp(-r/0.36935)*erfc((r-0.51523)/0.36823) with norm 6.826
       Charge density: gaussian nuclear width 0.478731 with net site charge 0.826
       Polarizability: cuspless exponential with width 0.32 and norm 3.73
       Hard sphere radius: 2.57003 bohrs
       Positions in reference frame:
         [ +0.000000 +0.000000 +0.000000 ]
     Initializing site 'H'
       Electron density: proportional to exp(-r/0.34641)*erfc((r-0)/0.390882) with norm 0.587
       Charge density: gaussian nuclear width 0.377945 with net site charge -0.413
       Polarizability: cuspless exponential with width 0.39 and norm 3.3
       Positions in reference frame:
         [ +0.000000 -1.441945 +1.122523 ]
         [ +0.000000 +1.441945 +1.122523 ]
     Net charge: 0   dipole magnitude: 0.927204
     Initializing spherical shell mfKernel with radius 2.61727 Bohr
     deltaS corrections:
       site 'O': -7.54299
       site 'H': -6.83917
   Initializing fluid molecule 'Na+'
     Initializing site 'Na'
       Electron density: proportional to exp(-r/0.19682)*erfc((r-0.71491)/0.41314) with norm 8.1383
       Charge density: gaussian nuclear width 0.365347 with net site charge -1
       Hard sphere radius: 1.86327 bohrs
       Positions in reference frame:
         [ +0.000000 +0.000000 +0.000000 ]
     Net charge: -1   dipole magnitude: 0
     Initializing gaussian mfKernel with width: 1.55004 Bohr
     deltaS corrections:
       site 'Na': -22.3555
   Initializing fluid molecule 'F-'
     Initializing site 'F'
       Electron density: proportional to exp(-r/0.38886)*erfc((r-0)/0.438782) with norm 8
       Charge density: gaussian nuclear width 0.374796 with net site charge 1
       Hard sphere radius: 2.39995 bohrs
       Positions in reference frame:
         [ +0.000000 +0.000000 +0.000000 ]
     Net charge: 1   dipole magnitude: 0
     Initializing gaussian mfKernel with width: 1.59012 Bohr
     deltaS corrections:
       site 'F': -9.04335

Correction to mu due to finite nuclear width = -0.010569
   Cavity determined by nc: 0.00142 and sigma: 0.707107
   Nonlocal vdW cavity from gaussian model electron density with norm = 8 and sigma = 0.993594 bohr
   Charge asymmetry in cavity with sensitivity pCavity = 36.5 e-bohr/Eh
   Electrostatic cavity expanded by eta = 1.46 bohrs
   Weighted density cavitation model constrained by Nbulk: 0.0049383 bohr^-3, Pvap: 3.14029 kPa, Rvdw: 2.61727 bohr and sigmaBulk: 4.62e-05 Eh/bohr^2 at T: 298 K.
   Weighted density dispersion model using vdW pair potentials with single solvent site with sqrtC6eff: 0.77 SI.


---- Citations for features of the code used in this run ----

   Software package:
      R. Sundararaman, K. Letchworth-Weaver, K.A. Schwarz, D. Gunceler, Y. Ozhabes and T.A. Arias, 'JDFTx: software for joint density-functional theory', SoftwareX 6, 278 (2017)

   gga-PBE exchange-correlation functional:
      J.P. Perdew, K. Burke and M. Ernzerhof, Phys. Rev. Lett. 77, 3865 (1996)

   Pseudopotentials:
      KF Garrity, JW Bennett, KM Rabe and D Vanderbilt, Comput. Mater. Sci. 81, 446 (2014)

   Truncated Coulomb potentials:
      R. Sundararaman and T.A. Arias, Phys. Rev. B 87, 165122 (2013)

   Van der Waals correction pair-potentials:
      S. Grimme, J. Comput. Chem. 27, 1787 (2006)

   Charge-asymmetric nonlocally-determined local-electric (CANDLE) solvation model:
      R. Sundararaman and W.A. Goddard III, J. Chem. Phys. 142, 064107 (2015)

   Total energy minimization with Auxiliary Hamiltonian:
      C. Freysoldt, S. Boeck, and J. Neugebauer, Phys. Rev. B 79, 241103(R) (2009)

This list may not be complete. Please suggest additional citations or
report any other bugs at https://github.com/shankar1729/jdftx/issues

Initialization completed successfully at t[s]:    705.51

Fluid solver invoked on fresh (partially random / LCAO) wavefunctions
Running a vacuum solve first:

-------- Initial electronic minimization -----------
	FillingsUpdate:  mu: -0.229707173  nElectrons: 399.500000  magneticMoment: [ Abs: 0.00986  Tot: +0.00533 ]
ElecMinimize: Iter:   0  F: -1245.312341685034653  |grad|_K:  8.053e-05  alpha:  1.000e+00
	FillingsUpdate:  mu: -0.117652094  nElectrons: 399.500000  magneticMoment: [ Abs: 0.00608  Tot: +0.00442 ]
	SubspaceRotationAdjust: set factor to 0.69
ElecMinimize: Iter:   1  F: -1246.550195132582076  |grad|_K:  5.727e-05  alpha:  8.857e-01  linmin: -2.016e-05  t[s]:    795.49
	FillingsUpdate:  mu: -0.187065620  nElectrons: 399.500000  magneticMoment: [ Abs: 0.00500  Tot: +0.00426 ]
	SubspaceRotationAdjust: set factor to 0.389
ElecMinimize: Iter:   2  F: -1246.712300239444630  |grad|_K:  3.676e-05  alpha:  3.200e-01  linmin:  9.055e-04  t[s]:    851.16
	FillingsUpdate:  mu: -0.167574345  nElectrons: 399.500000  magneticMoment: [ Abs: 0.00373  Tot: +0.00341 ]
	SubspaceRotationAdjust: set factor to 0.601
ElecMinimize: Iter:   3  F: -1246.854241543979242  |grad|_K:  1.403e-05  alpha:  5.814e-01  linmin:  2.281e-04  t[s]:    906.18
	FillingsUpdate:  mu: -0.166437059  nElectrons: 399.500000  magneticMoment: [ Abs: 0.00330  Tot: +0.00306 ]
	SubspaceRotationAdjust: set factor to 0.645
ElecMinimize: Iter:   4  F: -1246.881511444392117  |grad|_K:  8.019e-06  alpha:  6.554e-01  linmin:  1.281e-05  t[s]:    961.42
	FillingsUpdate:  mu: -0.170245615  nElectrons: 399.500000  magneticMoment: [ Abs: 0.00279  Tot: +0.00259 ]
	SubspaceRotationAdjust: set factor to 0.755
ElecMinimize: Iter:   5  F: -1246.891673267034776  |grad|_K:  5.225e-06  alpha:  7.337e-01  linmin:  1.930e-06  t[s]:   1017.16
	FillingsUpdate:  mu: -0.168667505  nElectrons: 399.500000  magneticMoment: [ Abs: 0.00241  Tot: +0.00222 ]
	SubspaceRotationAdjust: set factor to 0.865
ElecMinimize: Iter:   6  F: -1246.894821273964681  |grad|_K:  3.181e-06  alpha:  5.325e-01  linmin:  1.185e-06  t[s]:   1072.41
	FillingsUpdate:  mu: -0.169569210  nElectrons: 399.500000  magneticMoment: [ Abs: 0.00203  Tot: +0.00184 ]
	SubspaceRotationAdjust: set factor to 0.882
ElecMinimize: Iter:   7  F: -1246.896053578340570  |grad|_K:  1.581e-06  alpha:  5.644e-01  linmin:  7.720e-06  t[s]:   1127.50
	FillingsUpdate:  mu: -0.168590415  nElectrons: 399.500000  magneticMoment: [ Abs: 0.00172  Tot: +0.00154 ]
	SubspaceRotationAdjust: set factor to 0.79
ElecMinimize: Iter:   8  F: -1246.896346585627498  |grad|_K:  1.019e-06  alpha:  5.447e-01  linmin:  2.475e-06  t[s]:   1183.38
	FillingsUpdate:  mu: -0.169834824  nElectrons: 399.500000  magneticMoment: [ Abs: 0.00149  Tot: +0.00133 ]
	SubspaceRotationAdjust: set factor to 0.554
ElecMinimize: Iter:   9  F: -1246.896434162995547  |grad|_K:  6.442e-07  alpha:  3.906e-01  linmin:  3.074e-07  t[s]:   1238.83
	FillingsUpdate:  mu: -0.169515563  nElectrons: 399.500000  magneticMoment: [ Abs: 0.00123  Tot: +0.00109 ]
	SubspaceRotationAdjust: set factor to 0.595
ElecMinimize: Iter:  10  F: -1246.896480890118255  |grad|_K:  3.415e-07  alpha:  5.215e-01  linmin:  7.904e-07  t[s]:   1293.94
	FillingsUpdate:  mu: -0.169447194  nElectrons: 399.500000  magneticMoment: [ Abs: 0.00105  Tot: +0.00092 ]
	SubspaceRotationAdjust: set factor to 0.671
ElecMinimize: Iter:  11  F: -1246.896495887937590  |grad|_K:  2.127e-07  alpha:  5.959e-01  linmin:  5.072e-07  t[s]:   1349.74
	FillingsUpdate:  mu: -0.169541246  nElectrons: 399.500000  magneticMoment: [ Abs: 0.00091  Tot: +0.00081 ]
	SubspaceRotationAdjust: set factor to 0.733
ElecMinimize: Iter:  12  F: -1246.896500892611812  |grad|_K:  1.282e-07  alpha:  5.121e-01  linmin:  2.725e-07  t[s]:   1405.68
	FillingsUpdate:  mu: -0.169476838  nElectrons: 399.500000  magneticMoment: [ Abs: 0.00077  Tot: +0.00069 ]
	SubspaceRotationAdjust: set factor to 0.773
ElecMinimize: Iter:  13  F: -1246.896502884004349  |grad|_K:  7.673e-08  alpha:  5.613e-01  linmin:  1.527e-07  t[s]:   1461.57
	FillingsUpdate:  mu: -0.169529426  nElectrons: 399.500000  magneticMoment: [ Abs: 0.00066  Tot: +0.00059 ]
	SubspaceRotationAdjust: set factor to 0.73
ElecMinimize: Iter:  14  F: -1246.896503538213437  |grad|_K:  4.782e-08  alpha:  5.144e-01  linmin:  7.153e-08  t[s]:   1516.16
	FillingsUpdate:  mu: -0.169497925  nElectrons: 399.500000  magneticMoment: [ Abs: 0.00057  Tot: +0.00050 ]
	SubspaceRotationAdjust: set factor to 0.682
ElecMinimize: Iter:  15  F: -1246.896503770936988  |grad|_K:  2.479e-08  alpha:  4.713e-01  linmin:  8.047e-08  t[s]:   1571.88
	FillingsUpdate:  mu: -0.169504284  nElectrons: 399.500000  magneticMoment: [ Abs: 0.00047  Tot: +0.00041 ]
	SubspaceRotationAdjust: set factor to 0.754
ElecMinimize: Iter:  16  F: -1246.896503855506126  |grad|_K:  1.410e-08  alpha:  6.376e-01  linmin:  9.171e-08  t[s]:   1627.66
	FillingsUpdate:  mu: -0.169501414  nElectrons: 399.500000  magneticMoment: [ Abs: 0.00040  Tot: +0.00035 ]
	SubspaceRotationAdjust: set factor to 0.857
ElecMinimize: Iter:  17  F: -1246.896503880280534  |grad|_K:  9.714e-09  alpha:  5.775e-01  linmin:  6.578e-08  t[s]:   1683.09
	FillingsUpdate:  mu: -0.169500702  nElectrons: 399.500000  magneticMoment: [ Abs: 0.00033  Tot: +0.00029 ]
	SubspaceRotationAdjust: set factor to 0.991
ElecMinimize: Iter:  18  F: -1246.896503891332941  |grad|_K:  5.233e-09  alpha:  5.388e-01  linmin: -1.428e-07  t[s]:   1739.11
	FillingsUpdate:  mu: -0.169502177  nElectrons: 399.500000  magneticMoment: [ Abs: 0.00026  Tot: +0.00023 ]
	SubspaceRotationAdjust: set factor to 1.1
ElecMinimize: Iter:  19  F: -1246.896503895001842  |grad|_K:  3.089e-09  alpha:  6.314e-01  linmin:  6.245e-08  t[s]:   1794.87
	FillingsUpdate:  mu: -0.169501199  nElectrons: 399.500000  magneticMoment: [ Abs: 0.00021  Tot: +0.00019 ]
	SubspaceRotationAdjust: set factor to 1.07
ElecMinimize: Iter:  20  F: -1246.896503896142121  |grad|_K:  2.163e-09  alpha:  5.262e-01  linmin: -9.402e-08  t[s]:   1850.23
ElecMinimize: Converged (|Delta F|<1.000000e-08 for 2 iters).
Setting wave functions to eigenvectors of Hamiltonian
Vacuum energy after initial minimize, F = -1246.896503896142121

	Linear fluid (dielectric constant: 78.4, screening length: 5.74355 Bohr) occupying 0.757994 of unit cell:	Completed after 14 iterations at t[s]:   1864.58

-------- Electronic minimization -----------
	Linear fluid (dielectric constant: 78.4, screening length: 5.74355 Bohr) occupying 0.757994 of unit cell:	Completed after 0 iterations at t[s]:   1882.13
	FillingsUpdate:  mu: -0.228112475  nElectrons: 399.500000  magneticMoment: [ Abs: 0.00017  Tot: +0.00014 ]
ElecMinimize: Iter:   0  F: -1246.845942183971374  |grad|_K:  1.217e-06  alpha:  1.000e+00
	Linear fluid (dielectric constant: 78.4, screening length: 5.74355 Bohr) occupying 0.758503 of unit cell:	Completed after 9 iterations at t[s]:   1926.94
	Linear fluid (dielectric constant: 78.4, screening length: 5.74355 Bohr) occupying 0.758135 of unit cell:	Completed after 10 iterations at t[s]:   1950.55
	FillingsUpdate:  mu: -0.226004649  nElectrons: 399.500000  magneticMoment: [ Abs: 0.00016  Tot: +0.00014 ]
	SubspaceRotationAdjust: set factor to 0.753
ElecMinimize: Iter:   1  F: -1246.846029278079868  |grad|_K:  8.405e-07  alpha:  2.728e-01  linmin:  4.686e-07  t[s]:   1978.02
	Linear fluid (dielectric constant: 78.4, screening length: 5.74355 Bohr) occupying 0.758269 of unit cell:	Completed after 7 iterations at t[s]:   1995.39
	Linear fluid (dielectric constant: 78.4, screening length: 5.74355 Bohr) occupying 0.758352 of unit cell:	Completed after 5 iterations at t[s]:   2017.65
	FillingsUpdate:  mu: -0.225767021  nElectrons: 399.500000  magneticMoment: [ Abs: 0.00013  Tot: +0.00011 ]
	SubspaceRotationAdjust: set factor to 0.507
ElecMinimize: Iter:   2  F: -1246.846097065417098  |grad|_K:  2.846e-07  alpha:  4.417e-01  linmin: -2.250e-06  t[s]:   2044.52
	Linear fluid (dielectric constant: 78.4, screening length: 5.74355 Bohr) occupying 0.758396 of unit cell:	Completed after 2 iterations at t[s]:   2061.40
	Linear fluid (dielectric constant: 78.4, screening length: 5.74355 Bohr) occupying 0.758420 of unit cell:	Completed after 2 iterations at t[s]:   2081.68
	FillingsUpdate:  mu: -0.225702102  nElectrons: 399.500000  magneticMoment: [ Abs: 0.00011  Tot: +0.00010 ]
	SubspaceRotationAdjust: set factor to 0.572
ElecMinimize: Iter:   3  F: -1246.846109262370646  |grad|_K:  1.639e-07  alpha:  6.845e-01  linmin: -1.287e-06  t[s]:   2107.81
	Linear fluid (dielectric constant: 78.4, screening length: 5.74355 Bohr) occupying 0.758448 of unit cell:	Completed after 2 iterations at t[s]:   2124.14
	Linear fluid (dielectric constant: 78.4, screening length: 5.74355 Bohr) occupying 0.758449 of unit cell:	Completed after 0 iterations at t[s]:   2144.43
	FillingsUpdate:  mu: -0.225742846  nElectrons: 399.500000  magneticMoment: [ Abs: 0.00010  Tot: +0.00008 ]
	SubspaceRotationAdjust: set factor to 0.701
ElecMinimize: Iter:   4  F: -1246.846113525598639  |grad|_K:  9.509e-08  alpha:  7.256e-01  linmin: -8.183e-06  t[s]:   2169.87
	Linear fluid (dielectric constant: 78.4, screening length: 5.74355 Bohr) occupying 0.758452 of unit cell:	Completed after 1 iterations at t[s]:   2186.03
	Linear fluid (dielectric constant: 78.4, screening length: 5.74355 Bohr) occupying 0.758452 of unit cell:	Completed after 0 iterations at t[s]:   2206.45
	FillingsUpdate:  mu: -0.225631668  nElectrons: 399.500000  magneticMoment: [ Abs: 0.00008  Tot: +0.00007 ]
	SubspaceRotationAdjust: set factor to 0.518
ElecMinimize: Iter:   5  F: -1246.846115022801996  |grad|_K:  7.474e-08  alpha:  7.489e-01  linmin: -7.184e-06  t[s]:   2231.34
	Linear fluid (dielectric constant: 78.4, screening length: 5.74355 Bohr) occupying 0.758442 of unit cell:	Completed after 2 iterations at t[s]:   2247.52
	Linear fluid (dielectric constant: 78.4, screening length: 5.74355 Bohr) occupying 0.758446 of unit cell:	Completed after 0 iterations at t[s]:   2267.65
	FillingsUpdate:  mu: -0.225728504  nElectrons: 399.500000  magneticMoment: [ Abs: 0.00007  Tot: +0.00006 ]
	SubspaceRotationAdjust: set factor to 0.284
ElecMinimize: Iter:   6  F: -1246.846115685971654  |grad|_K:  5.526e-08  alpha:  4.625e-01  linmin:  5.681e-05  t[s]:   2292.80
	Linear fluid (dielectric constant: 78.4, screening length: 5.74355 Bohr) occupying 0.758440 of unit cell:	Completed after 2 iterations at t[s]:   2309.44
	Linear fluid (dielectric constant: 78.4, screening length: 5.74355 Bohr) occupying 0.758443 of unit cell:	Completed after 0 iterations at t[s]:   2329.93
	FillingsUpdate:  mu: -0.225652913  nElectrons: 399.500000  magneticMoment: [ Abs: 0.00006  Tot: +0.00006 ]
	SubspaceRotationAdjust: set factor to 0.149
ElecMinimize: Iter:   7  F: -1246.846115687694464  |grad|_K:  2.845e-08  alpha:  2.155e-01  linmin: -1.838e-06  t[s]:   2355.11
	Linear fluid (dielectric constant: 78.4, screening length: 5.74355 Bohr) occupying 0.758441 of unit cell:	Completed after 0 iterations at t[s]:   2371.22
ElecMinimize: 	Predicted alpha/alphaT>3.000000, increasing alphaT to 6.463891e-01.
	Linear fluid (dielectric constant: 78.4, screening length: 5.74355 Bohr) occupying 0.758438 of unit cell:	Completed after 0 iterations at t[s]:   2390.48
	Linear fluid (dielectric constant: 78.4, screening length: 5.74355 Bohr) occupying 0.758436 of unit cell:	Completed after 0 iterations at t[s]:   2410.06
	FillingsUpdate:  mu: -0.225653104  nElectrons: 399.500000  magneticMoment: [ Abs: 0.00005  Tot: +0.00005 ]
	SubspaceRotationAdjust: set factor to 0.228
ElecMinimize: Iter:   8  F: -1246.846115831199086  |grad|_K:  1.871e-08  alpha:  8.107e-01  linmin:  9.226e-08  t[s]:   2435.42
	Linear fluid (dielectric constant: 78.4, screening length: 5.74355 Bohr) occupying 0.758433 of unit cell:	Completed after 2 iterations at t[s]:   2451.77
	Linear fluid (dielectric constant: 78.4, screening length: 5.74355 Bohr) occupying 0.758436 of unit cell:	Completed after 0 iterations at t[s]:   2472.14
ElecMinimize: 	Step increased F by 7.682411e-08, reducing alpha to 1.720555e-02.
	Linear fluid (dielectric constant: 78.4, screening length: 5.74355 Bohr) occupying 0.758436 of unit cell:	Completed after 0 iterations at t[s]:   2510.74
ElecMinimize: 	Step increased F by 6.575078e-08, reducing alpha to 1.720555e-03.
	Linear fluid (dielectric constant: 78.4, screening length: 5.74355 Bohr) occupying 0.758436 of unit cell:	Completed after 0 iterations at t[s]:   2549.21
ElecMinimize: 	Step increased F by 6.487653e-08, reducing alpha to 1.720555e-04.
ElecMinimize: 	Step failed to reduce F after 3 attempts. Quitting step.
ElecMinimize: 	Undoing step.
	Linear fluid (dielectric constant: 78.4, screening length: 5.74355 Bohr) occupying 0.758436 of unit cell:	Completed after 0 iterations at t[s]:   2587.50
ElecMinimize: 	Step failed: resetting search direction.
	FillingsUpdate:  mu: -0.225721118  nElectrons: 399.500000  magneticMoment: [ Abs: 0.00005  Tot: +0.00005 ]
	SubspaceRotationAdjust: set factor to 0.206
ElecMinimize: Iter:   9  F: -1246.846115766285493  |grad|_K:  3.662e-08  alpha:  1.721e-04
	Linear fluid (dielectric constant: 78.4, screening length: 5.74355 Bohr) occupying 0.758435 of unit cell:	Completed after 2 iterations at t[s]:   2629.28
	Linear fluid (dielectric constant: 78.4, screening length: 5.74355 Bohr) occupying 0.758436 of unit cell:	Completed after 2 iterations at t[s]:   2649.91
	FillingsUpdate:  mu: -0.225660967  nElectrons: 399.500000  magneticMoment: [ Abs: 0.00005  Tot: +0.00005 ]
	SubspaceRotationAdjust: set factor to 0.111
	SubspaceRotationAdjust: resetting CG because factor has changed by 0.103727
	Linear fluid (dielectric constant: 78.4, screening length: 5.74355 Bohr) occupying 0.758436 of unit cell:	Completed after 0 iterations at t[s]:   2685.49
ElecMinimize: 	State modified externally: resetting search direction.
ElecMinimize: Iter:  10  F: -1246.846115788545603  |grad|_K:  1.062e-08  alpha:  2.885e-01
	Linear fluid (dielectric constant: 78.4, screening length: 5.74355 Bohr) occupying 0.758436 of unit cell:	Completed after 0 iterations at t[s]:   2726.76
ElecMinimize: 	Predicted alpha/alphaT>3.000000, increasing alphaT to 8.656292e-01.
	Linear fluid (dielectric constant: 78.4, screening length: 5.74355 Bohr) occupying 0.758435 of unit cell:	Completed after 0 iterations at t[s]:   2746.41
	Linear fluid (dielectric constant: 78.4, screening length: 5.74355 Bohr) occupying 0.758435 of unit cell:	Completed after 0 iterations at t[s]:   2766.06
	FillingsUpdate:  mu: -0.225660928  nElectrons: 399.500000  magneticMoment: [ Abs: 0.00005  Tot: +0.00005 ]
	SubspaceRotationAdjust: set factor to 0.0516
ElecMinimize: Iter:  11  F: -1246.846115818038243  |grad|_K:  8.614e-09  alpha:  1.207e+00  linmin:  1.272e-08  t[s]:   2791.45
	Linear fluid (dielectric constant: 78.4, screening length: 5.74355 Bohr) occupying 0.758433 of unit cell:	Completed after 0 iterations at t[s]:   2807.48
	Linear fluid (dielectric constant: 78.4, screening length: 5.74355 Bohr) occupying 0.758433 of unit cell:	Completed after 0 iterations at t[s]:   2826.85
	FillingsUpdate:  mu: -0.225660511  nElectrons: 399.500000  magneticMoment: [ Abs: 0.00005  Tot: +0.00004 ]
	SubspaceRotationAdjust: set factor to 0.0678
ElecMinimize: Iter:  12  F: -1246.846115834340253  |grad|_K:  6.023e-09  alpha:  1.014e+00  linmin: -3.465e-07  t[s]:   2851.85
	Linear fluid (dielectric constant: 78.4, screening length: 5.74355 Bohr) occupying 0.758432 of unit cell:	Completed after 0 iterations at t[s]:   2868.16
	Linear fluid (dielectric constant: 78.4, screening length: 5.74355 Bohr) occupying 0.758432 of unit cell:	Completed after 0 iterations at t[s]:   2888.36
	FillingsUpdate:  mu: -0.225660327  nElectrons: 399.500000  magneticMoment: [ Abs: 0.00005  Tot: +0.00004 ]
	SubspaceRotationAdjust: set factor to 0.0824
ElecMinimize: Iter:  13  F: -1246.846115838881815  |grad|_K:  4.513e-09  alpha:  5.824e-01  linmin: -1.355e-07  t[s]:   2913.39
	Linear fluid (dielectric constant: 78.4, screening length: 5.74355 Bohr) occupying 0.758432 of unit cell:	Completed after 0 iterations at t[s]:   2929.26
	Linear fluid (dielectric constant: 78.4, screening length: 5.74355 Bohr) occupying 0.758432 of unit cell:	Completed after 0 iterations at t[s]:   2948.74
	FillingsUpdate:  mu: -0.225660141  nElectrons: 399.500000  magneticMoment: [ Abs: 0.00005  Tot: +0.00004 ]
	SubspaceRotationAdjust: set factor to 0.101
ElecMinimize: Iter:  14  F: -1246.846115842964082  |grad|_K:  4.699e-09  alpha:  9.070e-01  linmin: -4.419e-07  t[s]:   2974.17
ElecMinimize: Converged (|Delta F|<1.000000e-08 for 2 iters).
Setting wave functions to eigenvectors of Hamiltonian
Single-point solvation energy estimate, DeltaF = +0.050388053178040

# Ionic positions in lattice coordinates:
ion Nb   0.000002222868056  -0.000002229472222   0.500000000000000 1
ion Nb   0.250002222868056  -0.000002229472222   0.500000000000000 1
ion Nb   0.500002222868056  -0.000002229472222   0.500000000000000 1
ion Nb   0.750002222868056  -0.000002229472222   0.500000000000000 1
ion Nb   0.000002222868056   0.249997770527778   0.500000000000000 1
ion Nb   0.250002222868056   0.249997770527778   0.500000000000000 1
ion Nb   0.500002222868056   0.249997770527778   0.500000000000000 1
ion Nb   0.750002222868056   0.249997770527778   0.500000000000000 1
ion Nb   0.000002222868056   0.499997770527778   0.500000000000000 1
ion Nb   0.250002222868056   0.499997770527778   0.500000000000000 1
ion Nb   0.500002222868056   0.499997770527778   0.500000000000000 1
ion Nb   0.750002222868056   0.499997770527778   0.500000000000000 1
ion Nb   0.000002222868056   0.749997770527778   0.500000000000000 1
ion Nb   0.250002222868056   0.749997770527778   0.500000000000000 1
ion Nb   0.500002222868056   0.749997770527778   0.500000000000000 1
ion Nb   0.750002222868056   0.749997770527778   0.500000000000000 1
ion S   0.166668889534722   0.083331103861111   0.413537293692580 1
ion S   0.166668889534722   0.083331103861111   0.586462706307420 1
ion S   0.416668889534722   0.083331103861111   0.413537293692580 1
ion S   0.416668889534722   0.083331103861111   0.586462706307420 1
ion S   0.666668889534722   0.083331103861111   0.413537293692580 1
ion S   0.666668889534722   0.083331103861111   0.586462706307420 1
ion S   0.916668889534722   0.083331103861111   0.413537293692580 1
ion S   0.916668889534722   0.083331103861111   0.586462706307420 1
ion S   0.166668889534722   0.333331103861111   0.413537293692580 1
ion S   0.166668889534722   0.333331103861111   0.586462706307420 1
ion S   0.416668889534722   0.333331103861111   0.413537293692580 1
ion S   0.416668889534722   0.333331103861111   0.586462706307420 1
ion S   0.666668889534722   0.333331103861111   0.413537293692580 1
ion S   0.666668889534722   0.333331103861111   0.586462706307420 1
ion S   0.916668889534722   0.333331103861111   0.413537293692580 1
ion S   0.916668889534722   0.333331103861111   0.586462706307420 1
ion S   0.166668889534722   0.583331103861111   0.413537293692580 1
ion S   0.166668889534722   0.583331103861111   0.586462706307420 1
ion S   0.416668889534722   0.583331103861111   0.413537293692580 1
ion S   0.416668889534722   0.583331103861111   0.586462706307420 1
ion S   0.666668889534722   0.583331103861111   0.413537293692580 1
ion S   0.666668889534722   0.583331103861111   0.586462706307420 1
ion S   0.916668889534722   0.583331103861111   0.413537293692580 1
ion S   0.916668889534722   0.583331103861111   0.586462706307420 1
ion S   0.166668889534722   0.833331103861111   0.413537293692580 1
ion S   0.166668889534722   0.833331103861111   0.586462706307420 1
ion S   0.416668889534722   0.833331103861111   0.413537293692580 1
ion S   0.416668889534722   0.833331103861111   0.586462706307420 1
ion S   0.666668889534722   0.833331103861111   0.413537293692580 1
ion S   0.666668889534722   0.833331103861111   0.586462706307420 1
ion S   0.916668889534722   0.833331103861111   0.413537293692580 1
ion S   0.916668889534722   0.833331103861111   0.586462706307420 1


# Forces in Lattice coordinates:
force Nb   0.000000000000000  -0.000000000000000   0.000000000000000 1
force Nb  -0.000000000000000  -0.000000000000000   0.000000000000000 1
force Nb   0.000000000000000  -0.000000000000000   0.000000000000000 1
force Nb  -0.000000000000000  -0.000000000000000  -0.000000000000000 1
force Nb   0.000000000000000  -0.000000000000000   0.000000000000000 1
force Nb   0.000000000000000  -0.000000000000000  -0.000000000000000 1
force Nb   0.000000000000000  -0.000000000000000  -0.000000000000000 1
force Nb   0.000000000000000  -0.000000000000000  -0.000000000000000 1
force Nb  -0.000000000000000  -0.000000000000000   0.000000000000000 1
force Nb   0.000000000000000  -0.000000000000000  -0.000000000000000 1
force Nb  -0.000000000000000  -0.000000000000000   0.000000000000000 1
force Nb  -0.000000000000000  -0.000000000000000   0.000000000000000 1
force Nb  -0.000000000000000  -0.000000000000000  -0.000000000000000 1
force Nb  -0.000000000000000  -0.000000000000000  -0.000000000000000 1
force Nb  -0.000000000000000  -0.000000000000000  -0.000000000000000 1
force Nb  -0.000000000000000  -0.000000000000000  -0.000000000000000 1
force S   0.000000000000000  -0.000000000000000  -0.006062971505732 1
force S  -0.000000000000000   0.000000000000000   0.006062971505958 1
force S   0.000000000000000   0.000000000000000  -0.006062971505844 1
force S  -0.000000000000000   0.000000000000000   0.006062971505844 1
force S   0.000000000000000   0.000000000000000  -0.006062971505845 1
force S  -0.000000000000000   0.000000000000000   0.006062971505957 1
force S   0.000000000000000   0.000000000000000  -0.006062971505732 1
force S  -0.000000000000000  -0.000000000000000   0.006062971505730 1
force S  -0.000000000000000  -0.000000000000000  -0.006062971505846 1
force S  -0.000000000000000   0.000000000000000   0.006062971506072 1
force S   0.000000000000000   0.000000000000000  -0.006062971505846 1
force S  -0.000000000000000   0.000000000000000   0.006062971505844 1
force S  -0.000000000000000   0.000000000000000  -0.006062971506073 1
force S   0.000000000000000  -0.000000000000000   0.006062971505957 1
force S   0.000000000000000  -0.000000000000000  -0.006062971505732 1
force S  -0.000000000000000   0.000000000000000   0.006062971505843 1
force S  -0.000000000000000   0.000000000000000  -0.006062971505846 1
force S   0.000000000000000   0.000000000000000   0.006062971505844 1
force S  -0.000000000000000   0.000000000000000  -0.006062971505958 1
force S   0.000000000000000  -0.000000000000000   0.006062971505844 1
force S  -0.000000000000000  -0.000000000000000  -0.006062971505845 1
force S  -0.000000000000000   0.000000000000000   0.006062971505844 1
force S  -0.000000000000000  -0.000000000000000  -0.006062971505846 1
force S   0.000000000000000  -0.000000000000000   0.006062971505730 1
force S  -0.000000000000000   0.000000000000000  -0.006062971505844 1
force S  -0.000000000000000   0.000000000000000   0.006062971505731 1
force S   0.000000000000000   0.000000000000000  -0.006062971505845 1
force S  -0.000000000000000  -0.000000000000000   0.006062971505731 1
force S   0.000000000000000  -0.000000000000000  -0.006062971505958 1
force S   0.000000000000000   0.000000000000000   0.006062971505730 1
force S   0.000000000000000  -0.000000000000000  -0.006062971505845 1
force S  -0.000000000000000   0.000000000000000   0.006062971505844 1

# Energy components:
   A_diel =        0.0449330796117663
   Eewald =     7276.9139695992253110
       EH =     8283.5136209152169613
     Eloc =   -17166.7626436605714844
      Enl =      215.7425379532494958
      Exc =     -282.3730702459677104
 Exc_core =       83.9782300711728027
       KE =      342.1865117095795767
  MuShift =        0.0052844978338652
-------------------------------------
     Etot =    -1246.7506260806501359
       TS =        0.0954897623138512
-------------------------------------
        F =    -1246.8461158429640818

IonicMinimize: Iter:   0  F: -1246.846115842964082  |grad|_K:  8.343e-05  t[s]:   2989.44
IonicMinimize: Converged (|grad|_K<1.000000e-04).

#--- Lowdin population analysis ---
# oxidation-state Nb -0.372 -0.372 -0.372 -0.372 -0.372 -0.372 -0.372 -0.372 -0.372 -0.372 -0.372 -0.372 -0.372 -0.372 -0.372 -0.372
# magnetic-moments Nb +0.000 +0.000 +0.000 +0.000 +0.000 +0.000 +0.000 +0.000 +0.000 +0.000 +0.000 +0.000 +0.000 +0.000 +0.000 +0.000
# oxidation-state S +0.257 +0.257 +0.257 +0.257 +0.257 +0.257 +0.257 +0.257 +0.257 +0.257 +0.257 +0.257 +0.257 +0.257 +0.257 +0.257 +0.257 +0.257 +0.257 +0.257 +0.257 +0.257 +0.257 +0.257 +0.257 +0.257 +0.257 +0.257 +0.257 +0.257 +0.257 +0.257
# magnetic-moments S +0.000 +0.000 +0.000 +0.000 +0.000 +0.000 +0.000 +0.000 +0.000 +0.000 +0.000 +0.000 +0.000 +0.000 +0.000 +0.000 +0.000 +0.000 +0.000 +0.000 +0.000 +0.000 +0.000 +0.000 +0.000 +0.000 +0.000 +0.000 +0.000 +0.000 +0.000 +0.000


Dumping 'NbTe2.fillings' ... done
Dumping 'NbTe2.wfns' ... done
Dumping 'NbTe2.fluidState' ... done
Dumping 'NbTe2.ionpos' ... done
Dumping 'NbTe2.eigenvals' ... done
End date and time: Tue Feb  9 10:51:50 2021  (Duration: 0-0:49:57.23)
Done!
