
*************** JDFTx 1.5.0  ***************

Start date and time: Sat Dec 26 04:09:39 2020
Executable jdftx_gpu with command-line: -i Charged.in -o Charged.out
Running on hosts (process indices):  amax (0-4)
Divided in process groups (process indices):  0 (0)  1 (1)  2 (2)  3 (3)  4 (4)
gpuInit: Found compatible cuda device 0 'Tesla K80'
gpuInit: Found compatible cuda device 1 'Tesla K80'
gpuInit: Found compatible cuda device 2 'Tesla K80'
gpuInit: Found compatible cuda device 3 'Tesla K80'
gpuInit: Found compatible cuda device 4 'Tesla K80'
gpuInit: Selected device 0
Resource initialization completed at t[s]:      2.67
Run totals: 5 processes, 24 threads, 5 GPUs


Encountered 1 errors while parsing input:


Command 'lattice'  with command line:
	lattice Triclinic 12.64780 12.64780 90.0000 90.0000 119.9999 
failed with message:
	Parameter <gamma> must be specified.
The correct usage of this command is described below:
	lattice  [<modification>] <lattice> <parameters...>
	| \
	<R00> <R01> <R02> \
	<R10> <R11> <R12> \
	<R20> <R21> <R22>
Specify lattice by name and parameters, or explicitly using lattice vectors.

The options for the first syntax ([<modification>] <lattice> <parameters...> scheme) are:
+ Triclinic <a> <b> <c> <alpha> <beta> <gamma>
+ [Base-Centered] Monoclinic <a> <b> <c> <beta>
+ [Base|Body|Face-Centered] Orthorhombic <a> <b> <c>
+ [Body-Centered] Tetragonal <a> <c>
+ Rhombohedral <a> <alpha>
+ Hexagonal <a> <c>
+ [Body|Face-Centered] Cubic <a>
where lengths <a>,<b>,<c> are in bohrs and angles <alpha>,<beta,<gamma> are in degrees.

Alternately, the second syntax directly specifies the transformation
matrix from lattice to Cartesian coordinates. Therefore, the columns
of this 3x3 matrix are the lattice vectors in bohrs.

NOTE: other DFT codes may specify lattice vectors in rows;
confirm that you switch them to columns if porting an input file to JDFTx.



Input parsing failed with 1 errors (run with -t for command syntax)

End date and time: Sat Dec 26 04:09:42 2020  (Duration: 0-0:00:02.67)
Failed.

*************** JDFTx 1.5.0  ***************

Start date and time: Mon Dec 28 02:42:59 2020
Executable jdftx_gpu with command-line: -i Charged.in -o Charged.out
Running on hosts (process indices):  amax (0-4)
Divided in process groups (process indices):  0 (0)  1 (1)  2 (2)  3 (3)  4 (4)
gpuInit: Found compatible cuda device 0 'Tesla K80'
gpuInit: Found compatible cuda device 1 'Tesla K80'
gpuInit: Found compatible cuda device 2 'Tesla K80'
gpuInit: Found compatible cuda device 3 'Tesla K80'
gpuInit: Found compatible cuda device 4 'Tesla K80'
gpuInit: Selected device 0
Resource initialization completed at t[s]:      3.13
Run totals: 5 processes, 24 threads, 5 GPUs


Input parsed successfully to the following command list (including defaults):

basis kpoint-dependent
cache-projectors no
coords-type Lattice
core-overlap-check none
coulomb-interaction Slab 001
coulomb-truncation-embed 0.5 0.5 0.5
davidson-band-ratio 1.1
dump End State
dump-name NbTe2.$VAR
elec-cutoff 20
elec-eigen-algo Davidson
elec-ex-corr gga-PBE
elec-initial-charge 0.500000
elec-initial-magnetization 5.000000 no
elec-smearing Gauss 0.0073499
electronic-minimize  \
	dirUpdateScheme      FletcherReeves \
	linminMethod         DirUpdateRecommended \
	nIterations          200 \
	history              15 \
	knormThreshold       0 \
	energyDiffThreshold  1e-08 \
	nEnergyDiff          2 \
	alphaTstart          1 \
	alphaTmin            1e-10 \
	updateTestStepSize   yes \
	alphaTreduceFactor   0.1 \
	alphaTincreaseFactor 3 \
	nAlphaAdjustMax      3 \
	wolfeEnergy          0.0001 \
	wolfeGradient        0.9 \
	fdTest               no
exchange-regularization WignerSeitzTruncated
fluid LinearPCM 298.000000 1.013250
fluid-anion F- 1 MeanFieldLJ \
	epsBulk 1 \
	pMol 0 \
	epsInf 1 \
	Pvap 0 \
	sigmaBulk 0 \
	Rvdw 2.24877 \
	Res 0 \
	tauNuc 343133
fluid-cation Na+ 1 MeanFieldLJ \
	epsBulk 1 \
	pMol 0 \
	epsInf 1 \
	Pvap 0 \
	sigmaBulk 0 \
	Rvdw 2.19208 \
	Res 0 \
	tauNuc 343133
fluid-ex-corr lda-TF lda-PZ
fluid-gummel-loop 10 1.000000e-05
fluid-minimize  \
	dirUpdateScheme      PolakRibiere \
	linminMethod         DirUpdateRecommended \
	nIterations          400 \
	history              15 \
	knormThreshold       1e-11 \
	energyDiffThreshold  0 \
	nEnergyDiff          2 \
	alphaTstart          1 \
	alphaTmin            1e-10 \
	updateTestStepSize   yes \
	alphaTreduceFactor   0.1 \
	alphaTincreaseFactor 3 \
	nAlphaAdjustMax      6 \
	wolfeEnergy          0.0001 \
	wolfeGradient        0.9 \
	fdTest               no
fluid-solvent H2O 55.338 ScalarEOS \
	epsBulk 78.4 \
	pMol 0.92466 \
	epsInf 1.77 \
	Pvap 1.06736e-10 \
	sigmaBulk 4.62e-05 \
	Rvdw 2.61727 \
	Res 1.42 \
	tauNuc 343133 \
	poleEl 15 7 1
forces-output-coords Positions
initial-state NbTe2.$VAR
ion Mo   0.083329995000000   0.166669989000000   0.500000000000000 1
ion Mo   0.333329995000000   0.166669989000000   0.500000000000000 1
ion Mo   0.583329957000000   0.166669989000000   0.500000000000000 1
ion Mo   0.833329995000000   0.166669989000000   0.500000000000000 1
ion Mo   0.083329990000000   0.416669995000000   0.500000000000000 1
ion Mo   0.333329999000000   0.416669995000000   0.500000000000000 1
ion Mo   0.583329962000000   0.416669995000000   0.500000000000000 1
ion Mo   0.833329962000000   0.416669995000000   0.500000000000000 1
ion Mo   0.083329999000000   0.666669989000000   0.500000000000000 1
ion Mo   0.333329999000000   0.666669989000000   0.500000000000000 1
ion Mo   0.583329961000000   0.666669989000000   0.500000000000000 1
ion Mo   0.833329961000000   0.666669989000000   0.500000000000000 1
ion Mo   0.083329998000000   0.916669983000000   0.500000000000000 1
ion Mo   0.333329998000000   0.916669983000000   0.500000000000000 1
ion Mo   0.583329960000000   0.916669983000000   0.500000000000000 1
ion Mo   0.833329960000000   0.916669983000000   0.500000000000000 1
ion S   0.166669999000000   0.083329994000000   0.586509994000000 1
ion S   0.166669999000000   0.083329994000000   0.413490006000000 1
ion S   0.416669999000000   0.083329994000000   0.586509994000000 1
ion S   0.416669999000000   0.083329994000000   0.413490006000000 1
ion S   0.666670037000000   0.083329994000000   0.586509994000000 1
ion S   0.666670037000000   0.083329994000000   0.413490006000000 1
ion S   0.916670037000000   0.083329994000000   0.586509994000000 1
ion S   0.916670037000000   0.083329994000000   0.413490006000000 1
ion S   0.166669999000000   0.333329988000000   0.586509994000000 1
ion S   0.166669999000000   0.333329988000000   0.413490006000000 1
ion S   0.416669999000000   0.333329988000000   0.586509994000000 1
ion S   0.416669999000000   0.333329988000000   0.413490006000000 1
ion S   0.666670036000000   0.333329988000000   0.586509994000000 1
ion S   0.666670036000000   0.333329988000000   0.413490006000000 1
ion S   0.916669999000000   0.333329988000000   0.586509994000000 1
ion S   0.916669999000000   0.333329988000000   0.413490006000000 1
ion S   0.166669998000000   0.583329982000000   0.586509994000000 1
ion S   0.166669998000000   0.583329982000000   0.413490006000000 1
ion S   0.416669998000000   0.583329982000000   0.586509994000000 1
ion S   0.416669998000000   0.583329982000000   0.413490006000000 1
ion S   0.666670036000000   0.583329982000000   0.586509994000000 1
ion S   0.666670036000000   0.583329982000000   0.413490006000000 1
ion S   0.916670036000000   0.583329982000000   0.586509994000000 1
ion S   0.916670036000000   0.583329982000000   0.413490006000000 1
ion S   0.166669997000000   0.833329976000000   0.586509994000000 1
ion S   0.166669997000000   0.833329976000000   0.413490006000000 1
ion S   0.416669997000000   0.833329976000000   0.586509994000000 1
ion S   0.416669997000000   0.833329976000000   0.413490006000000 1
ion S   0.666670035000000   0.833329976000000   0.586509994000000 1
ion S   0.666670035000000   0.833329976000000   0.413490006000000 1
ion S   0.916670035000000   0.833329976000000   0.586509994000000 1
ion S   0.916670035000000   0.833329976000000   0.413490006000000 1
ion-species GBRV/$ID_pbe.uspp
ion-width Ecut
ionic-minimize  \
	dirUpdateScheme      L-BFGS \
	linminMethod         DirUpdateRecommended \
	nIterations          500 \
	history              15 \
	knormThreshold       0.0001 \
	energyDiffThreshold  1e-06 \
	nEnergyDiff          2 \
	alphaTstart          1 \
	alphaTmin            1e-10 \
	updateTestStepSize   yes \
	alphaTreduceFactor   0.1 \
	alphaTincreaseFactor 3 \
	nAlphaAdjustMax      3 \
	wolfeEnergy          0.0001 \
	wolfeGradient        0.9 \
	fdTest               no
kpoint   0.000000000000   0.000000000000   0.000000000000  1.00000000000000
kpoint-folding 5 5 1 
latt-move-scale 1 1 1
latt-scale 1.88973 1.88973 1.88973 
lattice Triclinic 12.6478 12.6478 18.1298 90 90 120
lattice-minimize  \
	dirUpdateScheme      L-BFGS \
	linminMethod         DirUpdateRecommended \
	nIterations          0 \
	history              15 \
	knormThreshold       0 \
	energyDiffThreshold  1e-06 \
	nEnergyDiff          2 \
	alphaTstart          1 \
	alphaTmin            1e-10 \
	updateTestStepSize   yes \
	alphaTreduceFactor   0.1 \
	alphaTincreaseFactor 3 \
	nAlphaAdjustMax      3 \
	wolfeEnergy          0.0001 \
	wolfeGradient        0.9 \
	fdTest               no
lcao-params -1 1e-06 0.0073499
pcm-variant CANDLE
spintype z-spin
subspace-rotation-factor 1 yes
symmetries automatic
symmetry-threshold 0.0001



---------- Setting up symmetries ----------

Found 24 point-group symmetries of the bravais lattice
Found 64 space-group symmetries with basis
Applied RMS atom displacement 4.95407e-07 bohrs to make symmetries exact.

---------- Initializing the Grid ----------
R = 
[    23.9009   -11.9504          0  ]
[          0    20.6988          0  ]
[          0          0    34.2604  ]
unit cell volume = 16949.3
G =
[   0.262885   0.151776         -0  ]
[          0   0.303553          0  ]
[          0         -0   0.183395  ]
Minimum fftbox size, Smin = [  100  100  140  ]
Chosen fftbox size, S = [  100  100  140  ]

---------- Exchange Correlation functional ----------
Initalized PBE GGA exchange.
Initalized PBE GGA correlation.

---------- Setting up pseudopotentials ----------
Width of ionic core gaussian charges (only for fluid interactions / plotting) set to 0.397384

Reading pseudopotential file '/home/guoxy/vasp/jdftx-1.5.0/build/pseudopotentials/GBRV/mo_pbe.uspp':
  Title: Mo.  Created by USPP 7.3.6 on 14-9-2013
  Reference state energy: -69.261020.  14 valence electrons in orbitals:
    |400>  occupation: 2  eigenvalue: -2.465796
    |410>  occupation: 6  eigenvalue: -1.510132
    |420>  occupation: 4  eigenvalue: -0.207728
    |500>  occupation: 2  eigenvalue: -0.179278
    |510>  occupation: 0  eigenvalue: -0.052696
  lMax: 2  lLocal: 3  QijEcut: 5
  6 projectors sampled on a log grid with 629 points:
    l: 0  eig: -2.465797  rCut: 1.8
    l: 0  eig: -0.179280  rCut: 1.8
    l: 1  eig: -1.510132  rCut: 2
    l: 1  eig: 0.150000  rCut: 2
    l: 2  eig: -0.052696  rCut: 2.2
    l: 2  eig: 0.150000  rCut: 2.2
  Partial core density with radius 1.2
  Transforming core density to a uniform radial grid of dG=0.02 with 1468 points.
  Transforming local potential to a uniform radial grid of dG=0.02 with 1468 points.
  Transforming nonlocal projectors to a uniform radial grid of dG=0.02 with 432 points.
  Transforming density augmentations to a uniform radial grid of dG=0.02 with 1468 points.
  Transforming atomic orbitals to a uniform radial grid of dG=0.02 with 432 points.
  Core radius for overlap checks: 2.20 bohrs.

Reading pseudopotential file '/home/guoxy/vasp/jdftx-1.5.0/build/pseudopotentials/GBRV/s_pbe.uspp':
  Title: S.  Created by USPP 7.3.6 on 1-4-15
  Reference state energy: -11.898476.  6 valence electrons in orbitals:
    |300>  occupation: 2  eigenvalue: -0.634167
    |310>  occupation: 4  eigenvalue: -0.257568
  lMax: 2  lLocal: 3  QijEcut: 6
  6 projectors sampled on a log grid with 635 points:
    l: 0  eig: -0.634161  rCut: 1.5
    l: 0  eig: 1.500000  rCut: 1.5
    l: 1  eig: -0.257567  rCut: 1.5
    l: 1  eig: 1.500000  rCut: 1.5
    l: 2  eig: -1.000000  rCut: 1.5
    l: 2  eig: 1.500000  rCut: 1.5
  Partial core density with radius 1.15
  Transforming core density to a uniform radial grid of dG=0.02 with 1468 points.
  Transforming local potential to a uniform radial grid of dG=0.02 with 1468 points.
  Transforming nonlocal projectors to a uniform radial grid of dG=0.02 with 432 points.
  Transforming density augmentations to a uniform radial grid of dG=0.02 with 1468 points.
  Transforming atomic orbitals to a uniform radial grid of dG=0.02 with 432 points.
  Core radius for overlap checks: 1.50 bohrs.

Initialized 2 species with 48 total atoms.

Folded 1 k-points by 5x5x1 to 25 k-points.

---------- Setting up k-points, bands, fillings ----------
Adding inversion symmetry to k-mesh for non-inversion-symmetric unit cell.
Reduced to 9 k-points under symmetry. 
Computing the number of bands and number of electrons
Calculating initial fillings.
nElectrons: 416.500000   nBands: 336   nStates: 18

----- Setting up reduced wavefunction bases (one per k-point) -----
average nbasis = 72415.080 , ideal nbasis = 72408.503

---------- Setting up coulomb interaction ----------
Fluid mode embedding: using embedded box, but periodic Coulomb kernel.
(Fluid response is responsible for (approximate) separation between periodic images.)
Setting up double-sized grid for truncated Coulomb potentials:
R = 
[    23.9009   -11.9504          0  ]
[          0    20.6988          0  ]
[          0          0    68.5207  ]
unit cell volume = 33898.5
G =
[   0.262885   0.151776         -0  ]
[          0   0.303553          0  ]
[          0         -0  0.0916976  ]
Chosen fftbox size, S = [  100  100  280  ]
Integer grid location selected as the embedding center:
   Grid: [  50  50  70  ]
   Lattice: [  0.5  0.5  0.5  ]
   Cartesian: [  5.97524  10.3494  17.1302  ]
Constructing Wigner-Seitz cell: 8 faces (6 quadrilaterals, 2 hexagons)
Range-separation parameter for embedded mesh potentials due to point charges: 0.624082 bohrs.

Initializing van der Waals corrections
	NOTE: vdW corrections apply only for interactions with fluid.
	Mo:  C6:  427.91 Eh-a0^6  R0: 3.097 a0
	 S:  C6:   96.61 Eh-a0^6  R0: 3.180 a0

---------- Setting up ewald sum ----------
Optimum gaussian width for ewald sums = 6.772724 bohr.
Real space sum over 605 unit cells with max indices [  5  5  2  ]
Reciprocal space sum over 7875 terms with max indices [  7  7  17  ]

---------- Allocating electronic variables ----------
Initializing wave functions:  linear combination of atomic orbitals
Mo pseudo-atom occupations:   s ( 2 0 )  p ( 6 0 )  d ( 6 )
S pseudo-atom occupations:   s ( 2 )  p ( 4 )
	FillingsUpdate:  mu: +2.865241203  nElectrons: 416.500000  magneticMoment: [ Abs: 0.32374  Tot: +0.32295 ]
LCAOMinimize: Iter:   0  F: -1201.6746693504114774  |grad|_K:  1.605e-02  alpha:  1.000e+00
	FillingsUpdate:  mu: -1.247152933  nElectrons: 416.500000  magneticMoment: [ Abs: 0.84376  Tot: +0.80008 ]
LCAOMinimize: Iter:   1  F: -1330.5001577728116899  |grad|_K:  1.042e-02  alpha:  4.533e-01  linmin:  1.186e-01  cgtest: -1.034e+00  t[s]:    403.69
LCAOMinimize: 	Bad step direction: g.d > 0.
LCAOMinimize: 	Undoing step.
LCAOMinimize: 	Step failed: resetting search direction.
	FillingsUpdate:  mu: -1.247152933  nElectrons: 416.500000  magneticMoment: [ Abs: 0.84376  Tot: +0.80008 ]
LCAOMinimize: Iter:   2  F: -1330.5001577728116899  |grad|_K:  1.042e-02  alpha:  0.000e+00
	FillingsUpdate:  mu: -0.503566062  nElectrons: 416.500000  magneticMoment: [ Abs: 0.20947  Tot: +0.09065 ]
LCAOMinimize: Iter:   3  F: -1402.2605721882880516  |grad|_K:  7.536e-03  alpha:  1.959e-01  linmin: -2.767e-01  cgtest:  6.291e-01  t[s]:    622.74
LCAOMinimize: 	Step increased F by 1.023520e+02, reducing alpha to 5.282370e-02.
	FillingsUpdate:  mu: -0.440178459  nElectrons: 416.500000  magneticMoment: [ Abs: 0.27529  Tot: +0.14882 ]
LCAOMinimize: Iter:   4  F: -1408.6501730177340050  |grad|_K:  6.456e-03  alpha:  5.282e-02  linmin: -3.843e-01  cgtest:  9.595e-01  t[s]:    841.91
LCAOMinimize: Encountered beta<0, resetting CG.
LCAOMinimize: 	Wrong curvature in test step, increasing alphaT to 1.584711e-01.
	FillingsUpdate:  mu: -0.390875005  nElectrons: 416.500000  magneticMoment: [ Abs: 0.30043  Tot: +0.14117 ]
LCAOMinimize: Iter:   5  F: -1413.2289919939023548  |grad|_K:  5.937e-03  alpha: -1.510e+00  linmin: -3.741e-01  cgtest:  8.943e-01  t[s]:    967.76
	FillingsUpdate:  mu: -0.213644030  nElectrons: 416.500000  magneticMoment: [ Abs: 0.43227  Tot: +0.12020 ]
LCAOMinimize: Iter:   6  F: -1423.0228904407858863  |grad|_K:  2.136e-03  alpha:  1.547e-01  linmin: -4.346e-01  cgtest:  7.472e-01  t[s]:   1095.64
LCAOMinimize: Encountered beta<0, resetting CG.
	FillingsUpdate:  mu: -0.055333973  nElectrons: 416.500000  magneticMoment: [ Abs: 0.42956  Tot: +0.09557 ]
LCAOMinimize: Iter:   7  F: -1423.8501952646488462  |grad|_K:  2.795e-04  alpha:  1.814e-01  linmin:  3.319e-01  cgtest: -6.610e-01  t[s]:   1223.61
	FillingsUpdate:  mu: -0.043263127  nElectrons: 416.500000  magneticMoment: [ Abs: 0.26880  Tot: +0.05324 ]
LCAOMinimize: Iter:   8  F: -1423.8668616166353331  |grad|_K:  2.914e-04  alpha:  5.193e-01  linmin:  2.890e-03  cgtest:  8.337e-01  t[s]:   1352.88
	FillingsUpdate:  mu: -0.068008786  nElectrons: 416.500000  magneticMoment: [ Abs: 0.22609  Tot: +0.04346 ]
LCAOMinimize: Iter:   9  F: -1423.8808196215150019  |grad|_K:  2.273e-05  alpha:  1.657e-01  linmin:  1.300e-01  cgtest: -3.841e-01  t[s]:   1480.43
LCAOMinimize: 	Predicted alpha/alphaT>3.000000, increasing alphaT to 4.969832e-01.
	FillingsUpdate:  mu: -0.066890325  nElectrons: 416.500000  magneticMoment: [ Abs: 0.10948  Tot: +0.01609 ]
LCAOMinimize: Iter:  10  F: -1423.8811677465778303  |grad|_K:  7.541e-06  alpha:  7.542e-01  linmin:  1.539e-03  cgtest:  4.083e-01  t[s]:   1643.93
LCAOMinimize: Encountered beta<0, resetting CG.
	FillingsUpdate:  mu: -0.066221263  nElectrons: 416.500000  magneticMoment: [ Abs: 0.09567  Tot: +0.01375 ]
LCAOMinimize: Iter:  11  F: -1423.8811792254841748  |grad|_K:  3.336e-06  alpha:  1.973e-01  linmin: -8.729e-04  cgtest:  2.425e-03  t[s]:   1771.48
LCAOMinimize: 	Predicted alpha/alphaT>3.000000, increasing alphaT to 5.917779e-01.
	FillingsUpdate:  mu: -0.066504269  nElectrons: 416.500000  magneticMoment: [ Abs: 0.04423  Tot: +0.00527 ]
LCAOMinimize: Iter:  12  F: -1423.8811870447054844  |grad|_K:  9.017e-07  alpha:  6.868e-01  linmin: -1.149e-04  cgtest: -4.973e-03  t[s]:   1937.00
	FillingsUpdate:  mu: -0.066489374  nElectrons: 416.500000  magneticMoment: [ Abs: 0.00660  Tot: +0.00015 ]
LCAOMinimize: Iter:  13  F: -1423.8811879823231266  |grad|_K:  2.271e-07  alpha:  1.128e+00  linmin:  3.673e-04  cgtest: -5.578e-04  t[s]:   2064.98
	FillingsUpdate:  mu: -0.066508623  nElectrons: 416.500000  magneticMoment: [ Abs: 0.00273  Tot: -0.00000 ]
LCAOMinimize: Iter:  14  F: -1423.8811880182302048  |grad|_K:  2.366e-07  alpha:  6.813e-01  linmin: -3.934e-05  cgtest:  2.187e-04  t[s]:   2192.68
LCAOMinimize: Converged (|Delta F|<1.000000e-06 for 2 iters).
----- createFluidSolver() ----- (Fluid-side solver setup)
   Initializing fluid molecule 'H2O'
     Initializing site 'O'
       Electron density: proportional to exp(-r/0.36935)*erfc((r-0.51523)/0.36823) with norm 6.826
       Charge density: gaussian nuclear width 0.478731 with net site charge 0.826
       Polarizability: cuspless exponential with width 0.32 and norm 3.73
       Hard sphere radius: 2.57003 bohrs
       Positions in reference frame:
         [ +0.000000 +0.000000 +0.000000 ]
     Initializing site 'H'
       Electron density: proportional to exp(-r/0.34641)*erfc((r-0)/0.390882) with norm 0.587
       Charge density: gaussian nuclear width 0.377945 with net site charge -0.413
       Polarizability: cuspless exponential with width 0.39 and norm 3.3
       Positions in reference frame:
         [ +0.000000 -1.441945 +1.122523 ]
         [ +0.000000 +1.441945 +1.122523 ]
     Net charge: 0   dipole magnitude: 0.927204
     Initializing spherical shell mfKernel with radius 2.61727 Bohr
     deltaS corrections:
       site 'O': -7.54299
       site 'H': -6.83917
   Initializing fluid molecule 'Na+'
     Initializing site 'Na'
       Electron density: proportional to exp(-r/0.19682)*erfc((r-0.71491)/0.41314) with norm 8.1383
       Charge density: gaussian nuclear width 0.365347 with net site charge -1
       Hard sphere radius: 1.86327 bohrs
       Positions in reference frame:
         [ +0.000000 +0.000000 +0.000000 ]
     Net charge: -1   dipole magnitude: 0
     Initializing gaussian mfKernel with width: 1.55004 Bohr
     deltaS corrections:
       site 'Na': -22.3555
   Initializing fluid molecule 'F-'
     Initializing site 'F'
       Electron density: proportional to exp(-r/0.38886)*erfc((r-0)/0.438782) with norm 8
       Charge density: gaussian nuclear width 0.374796 with net site charge 1
       Hard sphere radius: 2.39995 bohrs
       Positions in reference frame:
         [ +0.000000 +0.000000 +0.000000 ]
     Net charge: 1   dipole magnitude: 0
     Initializing gaussian mfKernel with width: 1.59012 Bohr
     deltaS corrections:
       site 'F': -9.04335

Correction to mu due to finite nuclear width = -0.0121762
   Cavity determined by nc: 0.00142 and sigma: 0.707107
   Nonlocal vdW cavity from gaussian model electron density with norm = 8 and sigma = 0.993594 bohr
   Charge asymmetry in cavity with sensitivity pCavity = 36.5 e-bohr/Eh
   Electrostatic cavity expanded by eta = 1.46 bohrs
   Weighted density cavitation model constrained by Nbulk: 0.0049383 bohr^-3, Pvap: 3.14029 kPa, Rvdw: 2.61727 bohr and sigmaBulk: 4.62e-05 Eh/bohr^2 at T: 298 K.
   Weighted density dispersion model using vdW pair potentials with single solvent site with sqrtC6eff: 0.77 SI.


---- Citations for features of the code used in this run ----

   Software package:
      R. Sundararaman, K. Letchworth-Weaver, K.A. Schwarz, D. Gunceler, Y. Ozhabes and T.A. Arias, 'JDFTx: software for joint density-functional theory', SoftwareX 6, 278 (2017)

   gga-PBE exchange-correlation functional:
      J.P. Perdew, K. Burke and M. Ernzerhof, Phys. Rev. Lett. 77, 3865 (1996)

   Pseudopotentials:
      KF Garrity, JW Bennett, KM Rabe and D Vanderbilt, Comput. Mater. Sci. 81, 446 (2014)

   Truncated Coulomb potentials:
      R. Sundararaman and T.A. Arias, Phys. Rev. B 87, 165122 (2013)

   Van der Waals correction pair-potentials:
      S. Grimme, J. Comput. Chem. 27, 1787 (2006)

   Charge-asymmetric nonlocally-determined local-electric (CANDLE) solvation model:
      R. Sundararaman and W.A. Goddard III, J. Chem. Phys. 142, 064107 (2015)

   Total energy minimization with Auxiliary Hamiltonian:
      C. Freysoldt, S. Boeck, and J. Neugebauer, Phys. Rev. B 79, 241103(R) (2009)

This list may not be complete. Please suggest additional citations or
report any other bugs at https://github.com/shankar1729/jdftx/issues

Initialization completed successfully at t[s]:   2209.08

Fluid solver invoked on fresh (partially random / LCAO) wavefunctions
Running a vacuum solve first:

-------- Initial electronic minimization -----------
	FillingsUpdate:  mu: -0.066508623  nElectrons: 416.500000  magneticMoment: [ Abs: 0.00273  Tot: -0.00000 ]
ElecMinimize: Iter:   0  F: -1423.881188018227704  |grad|_K:  6.406e-05  alpha:  1.000e+00
	FillingsUpdate:  mu: +0.009445164  nElectrons: 416.500000  magneticMoment: [ Abs: 0.00142  Tot: +0.00007 ]
	SubspaceRotationAdjust: set factor to 1
ElecMinimize: Iter:   1  F: -1425.277898188224526  |grad|_K:  3.896e-05  alpha:  7.780e-01  linmin: -2.164e-05  t[s]:   2489.13
	FillingsUpdate:  mu: -0.000513744  nElectrons: 416.500000  magneticMoment: [ Abs: 0.00087  Tot: +0.00007 ]
	SubspaceRotationAdjust: set factor to 1.18
ElecMinimize: Iter:   2  F: -1425.634769807513521  |grad|_K:  1.850e-05  alpha:  5.383e-01  linmin: -1.291e-05  t[s]:   2660.74
	FillingsUpdate:  mu: -0.024612913  nElectrons: 416.500000  magneticMoment: [ Abs: 0.00048  Tot: +0.00004 ]
	SubspaceRotationAdjust: set factor to 1.15
ElecMinimize: Iter:   3  F: -1425.737458515880917  |grad|_K:  1.262e-05  alpha:  6.849e-01  linmin:  4.302e-05  t[s]:   2831.49
	FillingsUpdate:  mu: -0.007203200  nElectrons: 416.500000  magneticMoment: [ Abs: 0.00046  Tot: +0.00003 ]
	SubspaceRotationAdjust: set factor to 0.741
ElecMinimize: Iter:   4  F: -1425.754179135553386  |grad|_K:  8.195e-06  alpha:  2.337e-01  linmin: -1.019e-04  t[s]:   3001.29
	FillingsUpdate:  mu: -0.015502098  nElectrons: 416.500000  magneticMoment: [ Abs: 0.00049  Tot: +0.00001 ]
	SubspaceRotationAdjust: set factor to 0.71
ElecMinimize: Iter:   5  F: -1425.767426898866688  |grad|_K:  5.598e-06  alpha:  4.417e-01  linmin:  3.042e-05  t[s]:   3171.64
	FillingsUpdate:  mu: -0.017111108  nElectrons: 416.500000  magneticMoment: [ Abs: 0.00044  Tot: -0.00000 ]
	SubspaceRotationAdjust: set factor to 0.843
ElecMinimize: Iter:   6  F: -1425.773065782325830  |grad|_K:  3.376e-06  alpha:  4.174e-01  linmin:  6.344e-06  t[s]:   3342.22
	FillingsUpdate:  mu: -0.012670829  nElectrons: 416.500000  magneticMoment: [ Abs: 0.00033  Tot: -0.00000 ]
	SubspaceRotationAdjust: set factor to 0.703
ElecMinimize: Iter:   7  F: -1425.775330580156833  |grad|_K:  2.486e-06  alpha:  4.542e-01  linmin:  6.897e-06  t[s]:   3513.19
	FillingsUpdate:  mu: -0.016055240  nElectrons: 416.500000  magneticMoment: [ Abs: 0.00024  Tot: -0.00000 ]
	SubspaceRotationAdjust: set factor to 0.691
ElecMinimize: Iter:   8  F: -1425.776338302519434  |grad|_K:  1.504e-06  alpha:  3.725e-01  linmin:  3.292e-07  t[s]:   3683.09
	FillingsUpdate:  mu: -0.016312573  nElectrons: 416.500000  magneticMoment: [ Abs: 0.00014  Tot: +0.00000 ]
	SubspaceRotationAdjust: set factor to 0.848
ElecMinimize: Iter:   9  F: -1425.776807385159373  |grad|_K:  9.186e-07  alpha:  4.728e-01  linmin:  2.019e-06  t[s]:   3854.89
	FillingsUpdate:  mu: -0.015539705  nElectrons: 416.500000  magneticMoment: [ Abs: 0.00008  Tot: +0.00000 ]
	SubspaceRotationAdjust: set factor to 0.767
ElecMinimize: Iter:  10  F: -1425.776974684536071  |grad|_K:  6.188e-07  alpha:  4.521e-01  linmin:  3.127e-07  t[s]:   4025.45
	FillingsUpdate:  mu: -0.016444238  nElectrons: 416.500000  magneticMoment: [ Abs: 0.00005  Tot: +0.00000 ]
	SubspaceRotationAdjust: set factor to 0.57
ElecMinimize: Iter:  11  F: -1425.777035389208095  |grad|_K:  4.299e-07  alpha:  3.611e-01  linmin:  4.909e-07  t[s]:   4195.65
	FillingsUpdate:  mu: -0.016099884  nElectrons: 416.500000  magneticMoment: [ Abs: 0.00003  Tot: +0.00000 ]
	SubspaceRotationAdjust: set factor to 0.659
ElecMinimize: Iter:  12  F: -1425.777074997610498  |grad|_K:  2.367e-07  alpha:  4.887e-01  linmin:  1.502e-06  t[s]:   4365.68
	FillingsUpdate:  mu: -0.015835129  nElectrons: 416.500000  magneticMoment: [ Abs: 0.00002  Tot: +0.00000 ]
	SubspaceRotationAdjust: set factor to 0.68
ElecMinimize: Iter:  13  F: -1425.777088786012200  |grad|_K:  2.070e-07  alpha:  5.617e-01  linmin:  2.349e-07  t[s]:   4535.12
	FillingsUpdate:  mu: -0.016131540  nElectrons: 416.500000  magneticMoment: [ Abs: 0.00002  Tot: +0.00000 ]
	SubspaceRotationAdjust: set factor to 0.591
ElecMinimize: Iter:  14  F: -1425.777096693259409  |grad|_K:  1.214e-07  alpha:  4.202e-01  linmin:  7.781e-08  t[s]:   4705.38
	FillingsUpdate:  mu: -0.016088504  nElectrons: 416.500000  magneticMoment: [ Abs: 0.00001  Tot: -0.00000 ]
	SubspaceRotationAdjust: set factor to 0.664
ElecMinimize: Iter:  15  F: -1425.777100728851110  |grad|_K:  9.042e-08  alpha:  6.249e-01  linmin:  6.594e-07  t[s]:   4876.27
	FillingsUpdate:  mu: -0.016042256  nElectrons: 416.500000  magneticMoment: [ Abs: 0.00001  Tot: -0.00000 ]
	SubspaceRotationAdjust: set factor to 0.688
ElecMinimize: Iter:  16  F: -1425.777102256074613  |grad|_K:  6.422e-08  alpha:  4.262e-01  linmin: -3.584e-08  t[s]:   5046.08
	FillingsUpdate:  mu: -0.016103316  nElectrons: 416.500000  magneticMoment: [ Abs: 0.00001  Tot: -0.00000 ]
	SubspaceRotationAdjust: set factor to 0.637
ElecMinimize: Iter:  17  F: -1425.777103259598562  |grad|_K:  4.320e-08  alpha:  5.546e-01  linmin:  3.386e-07  t[s]:   5216.14
	FillingsUpdate:  mu: -0.016055858  nElectrons: 416.500000  magneticMoment: [ Abs: 0.00001  Tot: -0.00000 ]
	SubspaceRotationAdjust: set factor to 0.638
ElecMinimize: Iter:  18  F: -1425.777103699530926  |grad|_K:  3.455e-08  alpha:  5.380e-01  linmin:  1.121e-07  t[s]:   5385.19
	FillingsUpdate:  mu: -0.016060459  nElectrons: 416.500000  magneticMoment: [ Abs: 0.00001  Tot: -0.00000 ]
	SubspaceRotationAdjust: set factor to 0.742
ElecMinimize: Iter:  19  F: -1425.777103928665156  |grad|_K:  2.140e-08  alpha:  4.377e-01  linmin:  3.506e-08  t[s]:   5553.94
	FillingsUpdate:  mu: -0.016082875  nElectrons: 416.500000  magneticMoment: [ Abs: 0.00000  Tot: +0.00000 ]
	SubspaceRotationAdjust: set factor to 0.771
ElecMinimize: Iter:  20  F: -1425.777104048035199  |grad|_K:  1.548e-08  alpha:  5.945e-01  linmin:  1.297e-07  t[s]:   5722.46
	FillingsUpdate:  mu: -0.016067077  nElectrons: 416.500000  magneticMoment: [ Abs: 0.00000  Tot: +0.00000 ]
	SubspaceRotationAdjust: set factor to 0.69
ElecMinimize: Iter:  21  F: -1425.777104090008379  |grad|_K:  1.053e-08  alpha:  3.997e-01  linmin: -3.035e-09  t[s]:   5890.64
	FillingsUpdate:  mu: -0.016076349  nElectrons: 416.500000  magneticMoment: [ Abs: 0.00000  Tot: +0.00000 ]
	SubspaceRotationAdjust: set factor to 0.703
ElecMinimize: Iter:  22  F: -1425.777104113294854  |grad|_K:  6.841e-09  alpha:  4.786e-01  linmin:  4.410e-09  t[s]:   6058.89
	FillingsUpdate:  mu: -0.016076098  nElectrons: 416.500000  magneticMoment: [ Abs: 0.00000  Tot: +0.00000 ]
	SubspaceRotationAdjust: set factor to 0.758
ElecMinimize: Iter:  23  F: -1425.777104124076232  |grad|_K:  4.506e-09  alpha:  5.247e-01  linmin:  2.294e-08  t[s]:   6227.64
	FillingsUpdate:  mu: -0.016072557  nElectrons: 416.500000  magneticMoment: [ Abs: 0.00000  Tot: -0.00000 ]
	SubspaceRotationAdjust: set factor to 0.788
ElecMinimize: Iter:  24  F: -1425.777104128358815  |grad|_K:  3.452e-09  alpha:  4.805e-01  linmin: -4.752e-08  t[s]:   6396.17
	FillingsUpdate:  mu: -0.016075993  nElectrons: 416.500000  magneticMoment: [ Abs: 0.00000  Tot: -0.00000 ]
	SubspaceRotationAdjust: set factor to 0.723
ElecMinimize: Iter:  25  F: -1425.777104130729867  |grad|_K:  2.220e-09  alpha:  4.542e-01  linmin:  1.852e-08  t[s]:   6564.60
ElecMinimize: Converged (|Delta F|<1.000000e-08 for 2 iters).
Setting wave functions to eigenvectors of Hamiltonian
Vacuum energy after initial minimize, F = -1425.777104130729867

	Linear fluid (dielectric constant: 78.4, screening length: 5.74355 Bohr) occupying 0.753866 of unit cell:	Completed after 14 iterations at t[s]:   6602.70

-------- Electronic minimization -----------
	Linear fluid (dielectric constant: 78.4, screening length: 5.74355 Bohr) occupying 0.753866 of unit cell:	Completed after 0 iterations at t[s]:   6642.57
	FillingsUpdate:  mu: -0.146651530  nElectrons: 416.500000  magneticMoment: [ Abs: 0.00001  Tot: -0.00000 ]
ElecMinimize: Iter:   0  F: -1425.822099809098518  |grad|_K:  6.951e-07  alpha:  1.000e+00
	Linear fluid (dielectric constant: 78.4, screening length: 5.74355 Bohr) occupying 0.754264 of unit cell:	Completed after 9 iterations at t[s]:   6773.18
	Linear fluid (dielectric constant: 78.4, screening length: 5.74355 Bohr) occupying 0.754055 of unit cell:	Completed after 8 iterations at t[s]:   6826.31
	FillingsUpdate:  mu: -0.148321091  nElectrons: 416.500000  magneticMoment: [ Abs: 0.00001  Tot: -0.00000 ]
	SubspaceRotationAdjust: set factor to 0.48
ElecMinimize: Iter:   1  F: -1425.822197497033812  |grad|_K:  6.302e-07  alpha:  4.627e-01  linmin:  2.674e-07  t[s]:   6900.56
	Linear fluid (dielectric constant: 78.4, screening length: 5.74355 Bohr) occupying 0.754359 of unit cell:	Completed after 7 iterations at t[s]:   6952.69
	Linear fluid (dielectric constant: 78.4, screening length: 5.74355 Bohr) occupying 0.754391 of unit cell:	Completed after 2 iterations at t[s]:   7004.97
	FillingsUpdate:  mu: -0.147383830  nElectrons: 416.500000  magneticMoment: [ Abs: 0.00005  Tot: -0.00000 ]
	SubspaceRotationAdjust: set factor to 0.735
ElecMinimize: Iter:   2  F: -1425.822286977072963  |grad|_K:  2.408e-07  alpha:  5.128e-01  linmin: -1.397e-06  t[s]:   7077.63
	Linear fluid (dielectric constant: 78.4, screening length: 5.74355 Bohr) occupying 0.754459 of unit cell:	Completed after 5 iterations at t[s]:   7129.95
	Linear fluid (dielectric constant: 78.4, screening length: 5.74355 Bohr) occupying 0.754451 of unit cell:	Completed after 1 iterations at t[s]:   7181.14
	FillingsUpdate:  mu: -0.147159429  nElectrons: 416.500000  magneticMoment: [ Abs: 0.00005  Tot: -0.00000 ]
	SubspaceRotationAdjust: set factor to 0.804
ElecMinimize: Iter:   3  F: -1425.822298664104210  |grad|_K:  1.057e-07  alpha:  4.507e-01  linmin:  1.768e-07  t[s]:   7253.45
	Linear fluid (dielectric constant: 78.4, screening length: 5.74355 Bohr) occupying 0.754468 of unit cell:	Completed after 2 iterations at t[s]:   7304.91
	Linear fluid (dielectric constant: 78.4, screening length: 5.74355 Bohr) occupying 0.754481 of unit cell:	Completed after 2 iterations at t[s]:   7355.49
	FillingsUpdate:  mu: -0.147049010  nElectrons: 416.500000  magneticMoment: [ Abs: 0.00005  Tot: -0.00000 ]
	SubspaceRotationAdjust: set factor to 0.797
ElecMinimize: Iter:   4  F: -1425.822302574328205  |grad|_K:  6.060e-08  alpha:  8.012e-01  linmin:  2.628e-07  t[s]:   7428.63
	Linear fluid (dielectric constant: 78.4, screening length: 5.74355 Bohr) occupying 0.754487 of unit cell:	Completed after 2 iterations at t[s]:   7480.52
	Linear fluid (dielectric constant: 78.4, screening length: 5.74355 Bohr) occupying 0.754485 of unit cell:	Completed after 1 iterations at t[s]:   7531.13
	FillingsUpdate:  mu: -0.147146748  nElectrons: 416.500000  magneticMoment: [ Abs: 0.00005  Tot: -0.00000 ]
	SubspaceRotationAdjust: set factor to 0.632
ElecMinimize: Iter:   5  F: -1425.822303352244489  |grad|_K:  5.624e-08  alpha:  4.842e-01  linmin:  6.422e-06  t[s]:   7604.01
	Linear fluid (dielectric constant: 78.4, screening length: 5.74355 Bohr) occupying 0.754488 of unit cell:	Completed after 2 iterations at t[s]:   7655.68
	Linear fluid (dielectric constant: 78.4, screening length: 5.74355 Bohr) occupying 0.754488 of unit cell:	Completed after 0 iterations at t[s]:   7705.68
	FillingsUpdate:  mu: -0.147090188  nElectrons: 416.500000  magneticMoment: [ Abs: 0.00004  Tot: -0.00000 ]
	SubspaceRotationAdjust: set factor to 0.422
ElecMinimize: Iter:   6  F: -1425.822304016649014  |grad|_K:  2.659e-08  alpha:  4.852e-01  linmin: -4.161e-06  t[s]:   7777.60
	Linear fluid (dielectric constant: 78.4, screening length: 5.74355 Bohr) occupying 0.754488 of unit cell:	Completed after 0 iterations at t[s]:   7828.85
	Linear fluid (dielectric constant: 78.4, screening length: 5.74355 Bohr) occupying 0.754488 of unit cell:	Completed after 0 iterations at t[s]:   7878.60
	FillingsUpdate:  mu: -0.147089806  nElectrons: 416.500000  magneticMoment: [ Abs: 0.00003  Tot: -0.00000 ]
	SubspaceRotationAdjust: set factor to 0.51
ElecMinimize: Iter:   7  F: -1425.822304197346966  |grad|_K:  2.071e-08  alpha:  5.700e-01  linmin:  1.636e-08  t[s]:   7950.97
	Linear fluid (dielectric constant: 78.4, screening length: 5.74355 Bohr) occupying 0.754487 of unit cell:	Completed after 1 iterations at t[s]:   8002.83
	Linear fluid (dielectric constant: 78.4, screening length: 5.74355 Bohr) occupying 0.754487 of unit cell:	Completed after 0 iterations at t[s]:   8052.77
	FillingsUpdate:  mu: -0.147131642  nElectrons: 416.500000  magneticMoment: [ Abs: 0.00003  Tot: -0.00000 ]
	SubspaceRotationAdjust: set factor to 0.415
ElecMinimize: Iter:   8  F: -1425.822304239791720  |grad|_K:  1.811e-08  alpha:  3.196e-01  linmin:  6.186e-06  t[s]:   8125.18
	Linear fluid (dielectric constant: 78.4, screening length: 5.74355 Bohr) occupying 0.754487 of unit cell:	Completed after 0 iterations at t[s]:   8176.39
	Linear fluid (dielectric constant: 78.4, screening length: 5.74355 Bohr) occupying 0.754487 of unit cell:	Completed after 0 iterations at t[s]:   8225.68
	FillingsUpdate:  mu: -0.147131915  nElectrons: 416.500000  magneticMoment: [ Abs: 0.00002  Tot: -0.00000 ]
	SubspaceRotationAdjust: set factor to 0.588
ElecMinimize: Iter:   9  F: -1425.822304293061734  |grad|_K:  1.967e-08  alpha:  3.915e-01  linmin: -2.085e-08  t[s]:   8298.80
	Linear fluid (dielectric constant: 78.4, screening length: 5.74355 Bohr) occupying 0.754487 of unit cell:	Completed after 2 iterations at t[s]:   8350.66
	Linear fluid (dielectric constant: 78.4, screening length: 5.74355 Bohr) occupying 0.754487 of unit cell:	Completed after 0 iterations at t[s]:   8401.05
	FillingsUpdate:  mu: -0.147060896  nElectrons: 416.500000  magneticMoment: [ Abs: 0.00002  Tot: -0.00000 ]
	SubspaceRotationAdjust: set factor to 0.479
ElecMinimize: Iter:  10  F: -1425.822304316593772  |grad|_K:  3.147e-08  alpha:  1.053e-01  linmin:  5.320e-05  t[s]:   8472.83
ElecMinimize: 	Bad step direction: g.d > 0.
ElecMinimize: 	Undoing step.
	Linear fluid (dielectric constant: 78.4, screening length: 5.74355 Bohr) occupying 0.754487 of unit cell:	Completed after 0 iterations at t[s]:   8524.86
ElecMinimize: 	Step failed: resetting search direction.
	FillingsUpdate:  mu: -0.147060896  nElectrons: 416.500000  magneticMoment: [ Abs: 0.00002  Tot: -0.00000 ]
	SubspaceRotationAdjust: set factor to 0.45
ElecMinimize: Iter:  11  F: -1425.822304316590134  |grad|_K:  2.972e-08  alpha:  0.000e+00
	Linear fluid (dielectric constant: 78.4, screening length: 5.74355 Bohr) occupying 0.754487 of unit cell:	Completed after 0 iterations at t[s]:   8648.30
ElecMinimize: 	Predicted alpha/alphaT>3.000000, increasing alphaT to 3.158390e-01.
	Linear fluid (dielectric constant: 78.4, screening length: 5.74355 Bohr) occupying 0.754487 of unit cell:	Completed after 1 iterations at t[s]:   8698.17
	Linear fluid (dielectric constant: 78.4, screening length: 5.74355 Bohr) occupying 0.754487 of unit cell:	Completed after 0 iterations at t[s]:   8748.27
	FillingsUpdate:  mu: -0.147133151  nElectrons: 416.500000  magneticMoment: [ Abs: 0.00002  Tot: -0.00000 ]
	SubspaceRotationAdjust: set factor to 0.238
ElecMinimize: Iter:  12  F: -1425.822304331085888  |grad|_K:  1.977e-08  alpha:  1.249e-01  linmin:  3.062e-04  t[s]:   8820.17
	Linear fluid (dielectric constant: 78.4, screening length: 5.74355 Bohr) occupying 0.754487 of unit cell:	Completed after 0 iterations at t[s]:   8871.38
	Linear fluid (dielectric constant: 78.4, screening length: 5.74355 Bohr) occupying 0.754487 of unit cell:	Completed after 2 iterations at t[s]:   8921.53
ElecMinimize: 	Step increased F by 2.889010e-08, reducing alpha to 3.466970e-02.
	Linear fluid (dielectric constant: 78.4, screening length: 5.74355 Bohr) occupying 0.754487 of unit cell:	Completed after 0 iterations at t[s]:   9036.86
ElecMinimize: 	Step increased F by 2.652769e-08, reducing alpha to 3.466970e-03.
	Linear fluid (dielectric constant: 78.4, screening length: 5.74355 Bohr) occupying 0.754487 of unit cell:	Completed after 0 iterations at t[s]:   9151.57
ElecMinimize: 	Step increased F by 2.943602e-08, reducing alpha to 3.466970e-04.
ElecMinimize: 	Step failed to reduce F after 3 attempts. Quitting step.
ElecMinimize: 	Undoing step.
	Linear fluid (dielectric constant: 78.4, screening length: 5.74355 Bohr) occupying 0.754487 of unit cell:	Completed after 0 iterations at t[s]:   9265.78
ElecMinimize: 	Step failed: resetting search direction.
	FillingsUpdate:  mu: -0.147104026  nElectrons: 416.500000  magneticMoment: [ Abs: 0.00002  Tot: -0.00000 ]
	SubspaceRotationAdjust: set factor to 0.232
ElecMinimize: Iter:  13  F: -1425.822304301621898  |grad|_K:  8.198e-09  alpha:  3.467e-04
	Linear fluid (dielectric constant: 78.4, screening length: 5.74355 Bohr) occupying 0.754487 of unit cell:	Completed after 0 iterations at t[s]:   9388.26
ElecMinimize: 	Predicted alpha/alphaT>3.000000, increasing alphaT to 3.746917e-01.
	Linear fluid (dielectric constant: 78.4, screening length: 5.74355 Bohr) occupying 0.754487 of unit cell:	Completed after 0 iterations at t[s]:   9436.91
	Linear fluid (dielectric constant: 78.4, screening length: 5.74355 Bohr) occupying 0.754487 of unit cell:	Completed after 0 iterations at t[s]:   9486.40
	FillingsUpdate:  mu: -0.147104034  nElectrons: 416.500000  magneticMoment: [ Abs: 0.00002  Tot: +0.00000 ]
	SubspaceRotationAdjust: set factor to 0.241
ElecMinimize: Iter:  14  F: -1425.822304313093127  |grad|_K:  5.393e-09  alpha:  3.880e-01  linmin: -6.470e-07  t[s]:   9558.19
	Linear fluid (dielectric constant: 78.4, screening length: 5.74355 Bohr) occupying 0.754487 of unit cell:	Completed after 0 iterations at t[s]:   9609.65
	Linear fluid (dielectric constant: 78.4, screening length: 5.74355 Bohr) occupying 0.754486 of unit cell:	Completed after 0 iterations at t[s]:   9659.56
	FillingsUpdate:  mu: -0.147104019  nElectrons: 416.500000  magneticMoment: [ Abs: 0.00002  Tot: +0.00000 ]
	SubspaceRotationAdjust: set factor to 0.253
ElecMinimize: Iter:  15  F: -1425.822304322863147  |grad|_K:  4.189e-09  alpha:  7.661e-01  linmin:  6.136e-07  t[s]:   9730.90
	Linear fluid (dielectric constant: 78.4, screening length: 5.74355 Bohr) occupying 0.754486 of unit cell:	Completed after 0 iterations at t[s]:   9783.17
	Linear fluid (dielectric constant: 78.4, screening length: 5.74355 Bohr) occupying 0.754486 of unit cell:	Completed after 0 iterations at t[s]:   9833.56
	FillingsUpdate:  mu: -0.147103950  nElectrons: 416.500000  magneticMoment: [ Abs: 0.00002  Tot: +0.00000 ]
	SubspaceRotationAdjust: set factor to 0.268
ElecMinimize: Iter:  16  F: -1425.822304327752818  |grad|_K:  3.178e-09  alpha:  6.385e-01  linmin: -2.464e-07  t[s]:   9906.30
ElecMinimize: Converged (|Delta F|<1.000000e-08 for 2 iters).
Setting wave functions to eigenvectors of Hamiltonian
Single-point solvation energy estimate, DeltaF = -0.045200197022950

# Ionic positions in lattice coordinates:
ion Mo   0.083329990729167   0.166669999041667   0.500000000000000 1
ion Mo   0.333329990729167   0.166669999041667   0.500000000000000 1
ion Mo   0.583329990729167   0.166669999041667   0.500000000000000 1
ion Mo   0.833329990729167   0.166669999041667   0.500000000000000 1
ion Mo   0.083329990729167   0.416669999041667   0.500000000000000 1
ion Mo   0.333329990729167   0.416669999041667   0.500000000000000 1
ion Mo   0.583329990729167   0.416669999041667   0.500000000000000 1
ion Mo   0.833329990729167   0.416669999041667   0.500000000000000 1
ion Mo   0.083329990729167   0.666669999041667   0.500000000000000 1
ion Mo   0.333329990729167   0.666669999041667   0.500000000000000 1
ion Mo   0.583329990729167   0.666669999041667   0.500000000000000 1
ion Mo   0.833329990729167   0.666669999041667   0.500000000000000 1
ion Mo   0.083329990729167   0.916669999041667   0.500000000000000 1
ion Mo   0.333329990729167   0.916669999041667   0.500000000000000 1
ion Mo   0.583329990729167   0.916669999041667   0.500000000000000 1
ion Mo   0.833329990729167   0.916669999041667   0.500000000000000 1
ion S   0.166670009791667   0.083329979979167   0.586509994000000 1
ion S   0.166670009791667   0.083329979979167   0.413490006000000 1
ion S   0.416670009791667   0.083329979979167   0.586509994000000 1
ion S   0.416670009791667   0.083329979979167   0.413490006000000 1
ion S   0.666670009791667   0.083329979979167   0.586509994000000 1
ion S   0.666670009791667   0.083329979979167   0.413490006000000 1
ion S   0.916670009791667   0.083329979979167   0.586509994000000 1
ion S   0.916670009791667   0.083329979979167   0.413490006000000 1
ion S   0.166670009791667   0.333329979979167   0.586509994000000 1
ion S   0.166670009791667   0.333329979979167   0.413490006000000 1
ion S   0.416670009791667   0.333329979979167   0.586509994000000 1
ion S   0.416670009791667   0.333329979979167   0.413490006000000 1
ion S   0.666670009791667   0.333329979979167   0.586509994000000 1
ion S   0.666670009791667   0.333329979979167   0.413490006000000 1
ion S   0.916670009791667   0.333329979979167   0.586509994000000 1
ion S   0.916670009791667   0.333329979979167   0.413490006000000 1
ion S   0.166670009791667   0.583329979979167   0.586509994000000 1
ion S   0.166670009791667   0.583329979979167   0.413490006000000 1
ion S   0.416670009791667   0.583329979979167   0.586509994000000 1
ion S   0.416670009791667   0.583329979979167   0.413490006000000 1
ion S   0.666670009791667   0.583329979979167   0.586509994000000 1
ion S   0.666670009791667   0.583329979979167   0.413490006000000 1
ion S   0.916670009791667   0.583329979979167   0.586509994000000 1
ion S   0.916670009791667   0.583329979979167   0.413490006000000 1
ion S   0.166670009791667   0.833329979979167   0.586509994000000 1
ion S   0.166670009791667   0.833329979979167   0.413490006000000 1
ion S   0.416670009791667   0.833329979979167   0.586509994000000 1
ion S   0.416670009791667   0.833329979979167   0.413490006000000 1
ion S   0.666670009791667   0.833329979979167   0.586509994000000 1
ion S   0.666670009791667   0.833329979979167   0.413490006000000 1
ion S   0.916670009791667   0.833329979979167   0.586509994000000 1
ion S   0.916670009791667   0.833329979979167   0.413490006000000 1


# Forces in Lattice coordinates:
force Mo   0.000688693714455  -0.000688693714455   0.000000000000000 1
force Mo   0.000688693714455  -0.000688693714455  -0.000000000000000 1
force Mo   0.000688693714455  -0.000688693714455   0.000000000000000 1
force Mo   0.000688693714455  -0.000688693714455   0.000000000000000 1
force Mo   0.000688693714455  -0.000688693714455   0.000000000000000 1
force Mo   0.000688693714455  -0.000688693714455   0.000000000000000 1
force Mo   0.000688693714455  -0.000688693714455   0.000000000000000 1
force Mo   0.000688693714455  -0.000688693714455   0.000000000000000 1
force Mo   0.000688693714455  -0.000688693714455  -0.000000000000000 1
force Mo   0.000688693714455  -0.000688693714455  -0.000000000000000 1
force Mo   0.000688693714455  -0.000688693714455  -0.000000000000000 1
force Mo   0.000688693714455  -0.000688693714455   0.000000000000000 1
force Mo   0.000688693714455  -0.000688693714455  -0.000000000000000 1
force Mo   0.000688693714455  -0.000688693714455  -0.000000000000000 1
force Mo   0.000688693714455  -0.000688693714455   0.000000000000000 1
force Mo   0.000688693714455  -0.000688693714455  -0.000000000000000 1
force S  -0.000537869840114   0.000537869840114   0.011759645691112 1
force S  -0.000537869840114   0.000537869840114  -0.011759645691227 1
force S  -0.000537869840114   0.000537869840114   0.011759645691225 1
force S  -0.000537869840114   0.000537869840114  -0.011759645691000 1
force S  -0.000537869840114   0.000537869840114   0.011759645691339 1
force S  -0.000537869840114   0.000537869840114  -0.011759645691113 1
force S  -0.000537869840114   0.000537869840114   0.011759645691338 1
force S  -0.000537869840114   0.000537869840114  -0.011759645691226 1
force S  -0.000537869840114   0.000537869840114   0.011759645691225 1
force S  -0.000537869840114   0.000537869840114  -0.011759645691114 1
force S  -0.000537869840114   0.000537869840114   0.011759645691113 1
force S  -0.000537869840114   0.000537869840114  -0.011759645690999 1
force S  -0.000537869840114   0.000537869840114   0.011759645691338 1
force S  -0.000537869840114   0.000537869840114  -0.011759645691113 1
force S  -0.000537869840114   0.000537869840114   0.011759645691339 1
force S  -0.000537869840114   0.000537869840114  -0.011759645690998 1
force S  -0.000537869840114   0.000537869840114   0.011759645691225 1
force S  -0.000537869840114   0.000537869840114  -0.011759645691114 1
force S  -0.000537869840114   0.000537869840114   0.011759645690998 1
force S  -0.000537869840114   0.000537869840114  -0.011759645691001 1
force S  -0.000537869840114   0.000537869840114   0.011759645691225 1
force S  -0.000537869840114   0.000537869840114  -0.011759645691342 1
force S  -0.000537869840114   0.000537869840114   0.011759645691340 1
force S  -0.000537869840114   0.000537869840114  -0.011759645691227 1
force S  -0.000537869840114   0.000537869840114   0.011759645691453 1
force S  -0.000537869840114   0.000537869840114  -0.011759645691115 1
force S  -0.000537869840114   0.000537869840114   0.011759645691112 1
force S  -0.000537869840114   0.000537869840114  -0.011759645691114 1
force S  -0.000537869840114   0.000537869840114   0.011759645691225 1
force S  -0.000537869840114   0.000537869840114  -0.011759645691114 1
force S  -0.000537869840114   0.000537869840114   0.011759645691340 1
force S  -0.000537869840114   0.000537869840114  -0.011759645691114 1

# Energy components:
   A_diel =       -0.0393094249855863
   Eewald =     8821.5981260505177488
       EH =    10025.0102208355656330
     Eloc =   -20676.0006228113379620
      Enl =      260.8972853179747062
      Exc =     -290.5185397396095368
 Exc_core =       76.0956977204624962
       KE =      357.1525312484055803
  MuShift =       -0.0060881081552771
-------------------------------------
     Etot =    -1425.8106989111593066
       TS =        0.0116054165935877
-------------------------------------
        F =    -1425.8223043277528177

IonicMinimize: Iter:   0  F: -1425.822304327752818  |grad|_K:  1.626e-04  t[s]:   9932.41

#--- Lowdin population analysis ---
# oxidation-state Mo -0.509 -0.509 -0.509 -0.509 -0.509 -0.509 -0.509 -0.509 -0.509 -0.509 -0.509 -0.509 -0.509 -0.509 -0.509 -0.509
# magnetic-moments Mo -0.000 -0.000 -0.000 -0.000 -0.000 -0.000 -0.000 -0.000 -0.000 -0.000 -0.000 -0.000 -0.000 -0.000 -0.000 -0.000
# oxidation-state S +0.305 +0.305 +0.305 +0.305 +0.305 +0.305 +0.305 +0.305 +0.305 +0.305 +0.305 +0.305 +0.305 +0.305 +0.305 +0.305 +0.305 +0.305 +0.305 +0.305 +0.305 +0.305 +0.305 +0.305 +0.305 +0.305 +0.305 +0.305 +0.305 +0.305 +0.305 +0.305
# magnetic-moments S +0.000 +0.000 +0.000 +0.000 +0.000 +0.000 +0.000 +0.000 +0.000 +0.000 +0.000 +0.000 +0.000 +0.000 +0.000 +0.000 +0.000 +0.000 +0.000 +0.000 +0.000 +0.000 +0.000 +0.000 +0.000 +0.000 +0.000 +0.000 +0.000 +0.000 +0.000 +0.000

	Linear fluid (dielectric constant: 78.4, screening length: 5.74355 Bohr) occupying 0.754475 of unit cell:	Completed after 3 iterations at t[s]:   9985.91

-------- Electronic minimization -----------
	Linear fluid (dielectric constant: 78.4, screening length: 5.74355 Bohr) occupying 0.754475 of unit cell:	Completed after 0 iterations at t[s]:  10024.78
	FillingsUpdate:  mu: -0.147063537  nElectrons: 416.500000  magneticMoment: [ Abs: 0.00005  Tot: +0.00000 ]
ElecMinimize: Iter:   0  F: -1425.822306746420281  |grad|_K:  3.629e-08  alpha:  1.000e+00
	Linear fluid (dielectric constant: 78.4, screening length: 5.74355 Bohr) occupying 0.754475 of unit cell:	Completed after 1 iterations at t[s]:  10155.11
	Linear fluid (dielectric constant: 78.4, screening length: 5.74355 Bohr) occupying 0.754475 of unit cell:	Completed after 0 iterations at t[s]:  10206.10
	FillingsUpdate:  mu: -0.147124897  nElectrons: 416.500000  magneticMoment: [ Abs: 0.00010  Tot: +0.00002 ]
	SubspaceRotationAdjust: set factor to 0.316
ElecMinimize: Iter:   1  F: -1425.822307287167860  |grad|_K:  2.274e-08  alpha:  9.281e-01  linmin:  4.062e-04  t[s]:  10278.33
	Linear fluid (dielectric constant: 78.4, screening length: 5.74355 Bohr) occupying 0.754476 of unit cell:	Completed after 0 iterations at t[s]:  10329.93
	Linear fluid (dielectric constant: 78.4, screening length: 5.74355 Bohr) occupying 0.754476 of unit cell:	Completed after 0 iterations at t[s]:  10380.19
	FillingsUpdate:  mu: -0.147125696  nElectrons: 416.500000  magneticMoment: [ Abs: 0.00010  Tot: +0.00005 ]
	SubspaceRotationAdjust: set factor to 0.411
ElecMinimize: Iter:   2  F: -1425.822307494927145  |grad|_K:  2.401e-08  alpha:  9.810e-01  linmin: -1.119e-06  t[s]:  10452.55
	Linear fluid (dielectric constant: 78.4, screening length: 5.74355 Bohr) occupying 0.754477 of unit cell:	Completed after 2 iterations at t[s]:  10504.71
	Linear fluid (dielectric constant: 78.4, screening length: 5.74355 Bohr) occupying 0.754476 of unit cell:	Completed after 2 iterations at t[s]:  10555.69
ElecMinimize: 	Step increased F by 1.368926e-08, reducing alpha to 2.786724e-02.
	Linear fluid (dielectric constant: 78.4, screening length: 5.74355 Bohr) occupying 0.754476 of unit cell:	Completed after 0 iterations at t[s]:  10671.48
ElecMinimize: 	Step increased F by 1.282297e-08, reducing alpha to 2.786724e-03.
	Linear fluid (dielectric constant: 78.4, screening length: 5.74355 Bohr) occupying 0.754476 of unit cell:	Completed after 0 iterations at t[s]:  10787.05
ElecMinimize: 	Step increased F by 1.538456e-08, reducing alpha to 2.786724e-04.
ElecMinimize: 	Step failed to reduce F after 3 attempts. Quitting step.
ElecMinimize: 	Undoing step.
	Linear fluid (dielectric constant: 78.4, screening length: 5.74355 Bohr) occupying 0.754476 of unit cell:	Completed after 0 iterations at t[s]:  10903.04
ElecMinimize: 	Step failed: resetting search direction.
	FillingsUpdate:  mu: -0.147068688  nElectrons: 416.500000  magneticMoment: [ Abs: 0.00010  Tot: +0.00005 ]
	SubspaceRotationAdjust: set factor to 0.388
ElecMinimize: Iter:   3  F: -1425.822307479523715  |grad|_K:  3.007e-08  alpha:  2.787e-04
	Linear fluid (dielectric constant: 78.4, screening length: 5.74355 Bohr) occupying 0.754476 of unit cell:	Completed after 3 iterations at t[s]:  11027.39
	Linear fluid (dielectric constant: 78.4, screening length: 5.74355 Bohr) occupying 0.754476 of unit cell:	Completed after 1 iterations at t[s]:  11078.12
	FillingsUpdate:  mu: -0.147139676  nElectrons: 416.500000  magneticMoment: [ Abs: 0.00010  Tot: +0.00005 ]
	SubspaceRotationAdjust: set factor to 0.282
ElecMinimize: Iter:   4  F: -1425.822307509003622  |grad|_K:  1.768e-08  alpha:  2.646e-01  linmin:  2.168e-04  t[s]:  11151.41
	Linear fluid (dielectric constant: 78.4, screening length: 5.74355 Bohr) occupying 0.754476 of unit cell:	Completed after 0 iterations at t[s]:  11202.78
ElecMinimize: 	Predicted alpha/alphaT>3.000000, increasing alphaT to 7.937696e-01.
	Linear fluid (dielectric constant: 78.4, screening length: 5.74355 Bohr) occupying 0.754477 of unit cell:	Completed after 0 iterations at t[s]:  11252.28
	Linear fluid (dielectric constant: 78.4, screening length: 5.74355 Bohr) occupying 0.754477 of unit cell:	Completed after 0 iterations at t[s]:  11302.53
	FillingsUpdate:  mu: -0.147140009  nElectrons: 416.500000  magneticMoment: [ Abs: 0.00007  Tot: +0.00004 ]
	SubspaceRotationAdjust: set factor to 0.394
ElecMinimize: Iter:   5  F: -1425.822307604703155  |grad|_K:  2.062e-08  alpha:  8.192e-01  linmin:  9.593e-07  t[s]:  11374.89
	Linear fluid (dielectric constant: 78.4, screening length: 5.74355 Bohr) occupying 0.754479 of unit cell:	Completed after 2 iterations at t[s]:  11426.95
	Linear fluid (dielectric constant: 78.4, screening length: 5.74355 Bohr) occupying 0.754477 of unit cell:	Completed after 3 iterations at t[s]:  11478.31
ElecMinimize: 	Step increased F by 5.671836e-08, reducing alpha to 1.677436e-02.
	Linear fluid (dielectric constant: 78.4, screening length: 5.74355 Bohr) occupying 0.754477 of unit cell:	Completed after 0 iterations at t[s]:  11594.93
ElecMinimize: 	Step increased F by 4.073081e-08, reducing alpha to 1.677436e-03.
	Linear fluid (dielectric constant: 78.4, screening length: 5.74355 Bohr) occupying 0.754477 of unit cell:	Completed after 0 iterations at t[s]:  11710.24
ElecMinimize: 	Step increased F by 3.992136e-08, reducing alpha to 1.677436e-04.
ElecMinimize: 	Step failed to reduce F after 3 attempts. Quitting step.
ElecMinimize: 	Undoing step.
	Linear fluid (dielectric constant: 78.4, screening length: 5.74355 Bohr) occupying 0.754477 of unit cell:	Completed after 0 iterations at t[s]:  11825.49
ElecMinimize: 	Step failed: resetting search direction.
	FillingsUpdate:  mu: -0.147070768  nElectrons: 416.500000  magneticMoment: [ Abs: 0.00007  Tot: +0.00004 ]
	SubspaceRotationAdjust: set factor to 0.343
ElecMinimize: Iter:   6  F: -1425.822307564808170  |grad|_K:  2.269e-08  alpha:  1.677e-04
	Linear fluid (dielectric constant: 78.4, screening length: 5.74355 Bohr) occupying 0.754477 of unit cell:	Completed after 2 iterations at t[s]:  11950.20
	Linear fluid (dielectric constant: 78.4, screening length: 5.74355 Bohr) occupying 0.754477 of unit cell:	Completed after 0 iterations at t[s]:  12001.75
	FillingsUpdate:  mu: -0.147160082  nElectrons: 416.500000  magneticMoment: [ Abs: 0.00010  Tot: +0.00002 ]
	SubspaceRotationAdjust: set factor to 0.254
ElecMinimize: Iter:   7  F: -1425.822307668742042  |grad|_K:  2.777e-08  alpha:  2.540e-01  linmin:  3.547e-04  t[s]:  12074.15
	Linear fluid (dielectric constant: 78.4, screening length: 5.74355 Bohr) occupying 0.754477 of unit cell:	Completed after 1 iterations at t[s]:  12125.89
	Linear fluid (dielectric constant: 78.4, screening length: 5.74355 Bohr) occupying 0.754477 of unit cell:	Completed after 0 iterations at t[s]:  12175.68
ElecMinimize: 	Step increased F by 6.609957e-08, reducing alpha to 4.261175e-03.
	Linear fluid (dielectric constant: 78.4, screening length: 5.74355 Bohr) occupying 0.754477 of unit cell:	Completed after 0 iterations at t[s]:  12291.48
ElecMinimize: 	Step increased F by 6.828691e-08, reducing alpha to 4.261175e-04.
	Linear fluid (dielectric constant: 78.4, screening length: 5.74355 Bohr) occupying 0.754477 of unit cell:	Completed after 0 iterations at t[s]:  12406.63
ElecMinimize: 	Step increased F by 6.867162e-08, reducing alpha to 4.261175e-05.
ElecMinimize: 	Step failed to reduce F after 3 attempts. Quitting step.
ElecMinimize: 	Undoing step.
	Linear fluid (dielectric constant: 78.4, screening length: 5.74355 Bohr) occupying 0.754477 of unit cell:	Completed after 0 iterations at t[s]:  12523.45
ElecMinimize: 	Step failed: resetting search direction.
	FillingsUpdate:  mu: -0.147128681  nElectrons: 416.500000  magneticMoment: [ Abs: 0.00010  Tot: +0.00002 ]
	SubspaceRotationAdjust: set factor to 0.298
ElecMinimize: Iter:   8  F: -1425.822307600053136  |grad|_K:  1.229e-08  alpha:  4.261e-05
	Linear fluid (dielectric constant: 78.4, screening length: 5.74355 Bohr) occupying 0.754477 of unit cell:	Completed after 0 iterations at t[s]:  12647.88
	Linear fluid (dielectric constant: 78.4, screening length: 5.74355 Bohr) occupying 0.754477 of unit cell:	Completed after 0 iterations at t[s]:  12698.62
	FillingsUpdate:  mu: -0.147121357  nElectrons: 416.500000  magneticMoment: [ Abs: 0.00022  Tot: +0.00005 ]
	SubspaceRotationAdjust: set factor to 0.293
ElecMinimize: Iter:   9  F: -1425.822307607931407  |grad|_K:  6.547e-09  alpha:  1.796e-01  linmin: -1.331e-04  t[s]:  12770.91
	Linear fluid (dielectric constant: 78.4, screening length: 5.74355 Bohr) occupying 0.754477 of unit cell:	Completed after 0 iterations at t[s]:  12822.82
ElecMinimize: 	Predicted alpha/alphaT>3.000000, increasing alphaT to 5.388929e-01.
	Linear fluid (dielectric constant: 78.4, screening length: 5.74355 Bohr) occupying 0.754477 of unit cell:	Completed after 0 iterations at t[s]:  12871.81
	Linear fluid (dielectric constant: 78.4, screening length: 5.74355 Bohr) occupying 0.754478 of unit cell:	Completed after 0 iterations at t[s]:  12921.78
	FillingsUpdate:  mu: -0.147116842  nElectrons: 416.500000  magneticMoment: [ Abs: 0.00040  Tot: +0.00003 ]
	SubspaceRotationAdjust: set factor to 0.375
ElecMinimize: Iter:  10  F: -1425.822307616636635  |grad|_K:  6.858e-09  alpha:  9.468e-01  linmin:  1.864e-05  t[s]:  12994.56
ElecMinimize: Converged (|Delta F|<1.000000e-08 for 2 iters).
Setting wave functions to eigenvectors of Hamiltonian

# Ionic positions in lattice coordinates:
ion Mo   0.083330945019050   0.166669044751783   0.500000000000000 1
ion Mo   0.333330945019050   0.166669044751783   0.500000000000000 1
ion Mo   0.583330945019050   0.166669044751783   0.500000000000000 1
ion Mo   0.833330945019050   0.166669044751783   0.500000000000000 1
ion Mo   0.083330945019050   0.416669044751783   0.500000000000000 1
ion Mo   0.333330945019050   0.416669044751783   0.500000000000000 1
ion Mo   0.583330945019050   0.416669044751783   0.500000000000000 1
ion Mo   0.833330945019050   0.416669044751783   0.500000000000000 1
ion Mo   0.083330945019050   0.666669044751783   0.500000000000000 1
ion Mo   0.333330945019050   0.666669044751783   0.500000000000000 1
ion Mo   0.583330945019050   0.666669044751783   0.500000000000000 1
ion Mo   0.833330945019050   0.666669044751783   0.500000000000000 1
ion Mo   0.083330945019050   0.916669044751783   0.500000000000000 1
ion Mo   0.333330945019050   0.916669044751783   0.500000000000000 1
ion Mo   0.583330945019050   0.916669044751783   0.500000000000000 1
ion Mo   0.833330945019050   0.916669044751783   0.500000000000000 1
ion S   0.166669532646725   0.083330457124108   0.586520012680658 1
ion S   0.166669532646725   0.083330457124108   0.413479987319342 1
ion S   0.416669532646725   0.083330457124108   0.586520012680658 1
ion S   0.416669532646725   0.083330457124108   0.413479987319342 1
ion S   0.666669532646725   0.083330457124108   0.586520012680658 1
ion S   0.666669532646725   0.083330457124108   0.413479987319342 1
ion S   0.916669532646725   0.083330457124108   0.586520012680658 1
ion S   0.916669532646725   0.083330457124108   0.413479987319342 1
ion S   0.166669532646725   0.333330457124109   0.586520012680658 1
ion S   0.166669532646725   0.333330457124109   0.413479987319342 1
ion S   0.416669532646725   0.333330457124109   0.586520012680658 1
ion S   0.416669532646725   0.333330457124109   0.413479987319342 1
ion S   0.666669532646725   0.333330457124109   0.586520012680658 1
ion S   0.666669532646725   0.333330457124109   0.413479987319342 1
ion S   0.916669532646725   0.333330457124109   0.586520012680658 1
ion S   0.916669532646725   0.333330457124109   0.413479987319342 1
ion S   0.166669532646725   0.583330457124108   0.586520012680658 1
ion S   0.166669532646725   0.583330457124108   0.413479987319342 1
ion S   0.416669532646725   0.583330457124108   0.586520012680658 1
ion S   0.416669532646725   0.583330457124108   0.413479987319342 1
ion S   0.666669532646725   0.583330457124108   0.586520012680658 1
ion S   0.666669532646725   0.583330457124108   0.413479987319342 1
ion S   0.916669532646725   0.583330457124108   0.586520012680658 1
ion S   0.916669532646725   0.583330457124108   0.413479987319342 1
ion S   0.166669532646725   0.833330457124108   0.586520012680658 1
ion S   0.166669532646725   0.833330457124108   0.413479987319342 1
ion S   0.416669532646725   0.833330457124108   0.586520012680658 1
ion S   0.416669532646725   0.833330457124108   0.413479987319342 1
ion S   0.666669532646725   0.833330457124108   0.586520012680658 1
ion S   0.666669532646725   0.833330457124108   0.413479987319342 1
ion S   0.916669532646725   0.833330457124108   0.586520012680658 1
ion S   0.916669532646725   0.833330457124108   0.413479987319342 1


# Forces in Lattice coordinates:
force Mo   0.001140501652063  -0.001140501652063   0.000000000000000 1
force Mo   0.001140501652063  -0.001140501652063   0.000000000000000 1
force Mo   0.001140501652063  -0.001140501652063   0.000000000000000 1
force Mo   0.001140501652063  -0.001140501652063   0.000000000000000 1
force Mo   0.001140501652063  -0.001140501652063  -0.000000000000000 1
force Mo   0.001140501652063  -0.001140501652063   0.000000000000000 1
force Mo   0.001140501652063  -0.001140501652063  -0.000000000000000 1
force Mo   0.001140501652063  -0.001140501652063  -0.000000000000000 1
force Mo   0.001140501652063  -0.001140501652063   0.000000000000000 1
force Mo   0.001140501652063  -0.001140501652063   0.000000000000000 1
force Mo   0.001140501652063  -0.001140501652063  -0.000000000000000 1
force Mo   0.001140501652063  -0.001140501652063   0.000000000000000 1
force Mo   0.001140501652063  -0.001140501652063   0.000000000000000 1
force Mo   0.001140501652063  -0.001140501652063  -0.000000000000000 1
force Mo   0.001140501652063  -0.001140501652063  -0.000000000000000 1
force Mo   0.001140501652063  -0.001140501652063   0.000000000000000 1
force S  -0.000377691469131   0.000377691469131   0.009700034785801 1
force S  -0.000377691469131   0.000377691469131  -0.009700034785571 1
force S  -0.000377691469131   0.000377691469131   0.009700034785573 1
force S  -0.000377691469131   0.000377691469131  -0.009700034785571 1
force S  -0.000377691469131   0.000377691469131   0.009700034785573 1
force S  -0.000377691469131   0.000377691469131  -0.009700034785800 1
force S  -0.000377691469131   0.000377691469131   0.009700034785801 1
force S  -0.000377691469131   0.000377691469131  -0.009700034785572 1
force S  -0.000377691469131   0.000377691469131   0.009700034785914 1
force S  -0.000377691469131   0.000377691469131  -0.009700034785572 1
force S  -0.000377691469131   0.000377691469131   0.009700034785459 1
force S  -0.000377691469131   0.000377691469131  -0.009700034785572 1
force S  -0.000377691469131   0.000377691469131   0.009700034785458 1
force S  -0.000377691469131   0.000377691469131  -0.009700034785799 1
force S  -0.000377691469131   0.000377691469131   0.009700034785687 1
force S  -0.000377691469131   0.000377691469131  -0.009700034785800 1
force S  -0.000377691469131   0.000377691469131   0.009700034785801 1
force S  -0.000377691469131   0.000377691469131  -0.009700034785687 1
force S  -0.000377691469131   0.000377691469131   0.009700034785573 1
force S  -0.000377691469131   0.000377691469131  -0.009700034785687 1
force S  -0.000377691469131   0.000377691469131   0.009700034785573 1
force S  -0.000377691469131   0.000377691469131  -0.009700034785913 1
force S  -0.000377691469131   0.000377691469131   0.009700034785801 1
force S  -0.000377691469131   0.000377691469131  -0.009700034785801 1
force S  -0.000377691469131   0.000377691469131   0.009700034785689 1
force S  -0.000377691469131   0.000377691469131  -0.009700034785687 1
force S  -0.000377691469131   0.000377691469131   0.009700034785461 1
force S  -0.000377691469131   0.000377691469131  -0.009700034785573 1
force S  -0.000377691469131   0.000377691469131   0.009700034785687 1
force S  -0.000377691469131   0.000377691469131  -0.009700034785914 1
force S  -0.000377691469131   0.000377691469131   0.009700034785687 1
force S  -0.000377691469131   0.000377691469131  -0.009700034785687 1

# Energy components:
   A_diel =       -0.0393065257508930
   Eewald =     8821.3737027697479789
       EH =    10024.8017315274883003
     Eloc =   -20675.5657539883177378
      Enl =      260.8989267836853969
      Exc =     -290.5167401204648741
 Exc_core =       76.0956977945148196
       KE =      357.1471298799303895
  MuShift =       -0.0060881081552771
-------------------------------------
     Etot =    -1425.8106999873214136
       TS =        0.0116076293152504
-------------------------------------
        F =    -1425.8223076166366354

IonicMinimize: Iter:   1  F: -1425.822307616636635  |grad|_K:  1.350e-04  alpha:  1.000e+00  linmin: -9.984e-01  t[s]:  13020.80

#--- Lowdin population analysis ---
# oxidation-state Mo -0.509 -0.509 -0.509 -0.509 -0.509 -0.509 -0.509 -0.509 -0.509 -0.509 -0.509 -0.509 -0.509 -0.509 -0.509 -0.509
# magnetic-moments Mo +0.000 +0.000 +0.000 +0.000 +0.000 +0.000 +0.000 +0.000 +0.000 +0.000 +0.000 +0.000 +0.000 +0.000 +0.000 +0.000
# oxidation-state S +0.306 +0.306 +0.306 +0.306 +0.306 +0.306 +0.306 +0.306 +0.306 +0.306 +0.306 +0.306 +0.306 +0.306 +0.306 +0.306 +0.306 +0.306 +0.306 +0.306 +0.306 +0.306 +0.306 +0.306 +0.306 +0.306 +0.306 +0.306 +0.306 +0.306 +0.306 +0.306
# magnetic-moments S -0.000 -0.000 -0.000 -0.000 -0.000 -0.000 -0.000 -0.000 -0.000 -0.000 -0.000 -0.000 -0.000 -0.000 -0.000 -0.000 -0.000 -0.000 -0.000 -0.000 -0.000 -0.000 -0.000 -0.000 -0.000 -0.000 -0.000 -0.000 -0.000 -0.000 -0.000 -0.000

	Linear fluid (dielectric constant: 78.4, screening length: 5.74355 Bohr) occupying 0.754425 of unit cell:	Completed after 5 iterations at t[s]:  13074.87

-------- Electronic minimization -----------
	Linear fluid (dielectric constant: 78.4, screening length: 5.74355 Bohr) occupying 0.754425 of unit cell:	Completed after 0 iterations at t[s]:  13114.42
	FillingsUpdate:  mu: -0.146557554  nElectrons: 416.500000  magneticMoment: [ Abs: 0.04004  Tot: -0.00003 ]
ElecMinimize: Iter:   0  F: -1425.822259117009935  |grad|_K:  3.764e-07  alpha:  1.000e+00
	Linear fluid (dielectric constant: 78.4, screening length: 5.74355 Bohr) occupying 0.754415 of unit cell:	Completed after 9 iterations at t[s]:  13246.15
	Linear fluid (dielectric constant: 78.4, screening length: 5.74355 Bohr) occupying 0.754420 of unit cell:	Completed after 9 iterations at t[s]:  13300.18
	FillingsUpdate:  mu: -0.147347753  nElectrons: 416.500000  magneticMoment: [ Abs: 0.02631  Tot: -0.00003 ]
	SubspaceRotationAdjust: set factor to 0.392
ElecMinimize: Iter:   1  F: -1425.822290118808269  |grad|_K:  2.158e-07  alpha:  4.962e-01  linmin:  8.999e-06  t[s]:  13375.02
	Linear fluid (dielectric constant: 78.4, screening length: 5.74355 Bohr) occupying 0.754422 of unit cell:	Completed after 2 iterations at t[s]:  13427.04
	Linear fluid (dielectric constant: 78.4, screening length: 5.74355 Bohr) occupying 0.754423 of unit cell:	Completed after 2 iterations at t[s]:  13477.29
	FillingsUpdate:  mu: -0.147278416  nElectrons: 416.500000  magneticMoment: [ Abs: 0.01572  Tot: -0.00005 ]
	SubspaceRotationAdjust: set factor to 0.6
ElecMinimize: Iter:   2  F: -1425.822302122348674  |grad|_K:  1.461e-07  alpha:  5.869e-01  linmin: -1.675e-04  t[s]:  13549.67
	Linear fluid (dielectric constant: 78.4, screening length: 5.74355 Bohr) occupying 0.754428 of unit cell:	Completed after 3 iterations at t[s]:  13601.85
	Linear fluid (dielectric constant: 78.4, screening length: 5.74355 Bohr) occupying 0.754429 of unit cell:	Completed after 0 iterations at t[s]:  13652.75
	FillingsUpdate:  mu: -0.147135175  nElectrons: 416.500000  magneticMoment: [ Abs: 0.00744  Tot: -0.00002 ]
	SubspaceRotationAdjust: set factor to 0.753
ElecMinimize: Iter:   3  F: -1425.822308566147285  |grad|_K:  9.400e-08  alpha:  6.734e-01  linmin: -1.924e-04  t[s]:  13724.96
	Linear fluid (dielectric constant: 78.4, screening length: 5.74355 Bohr) occupying 0.754432 of unit cell:	Completed after 2 iterations at t[s]:  13777.11
	Linear fluid (dielectric constant: 78.4, screening length: 5.74355 Bohr) occupying 0.754432 of unit cell:	Completed after 0 iterations at t[s]:  13828.27
	FillingsUpdate:  mu: -0.147169131  nElectrons: 416.500000  magneticMoment: [ Abs: 0.00265  Tot: +0.00001 ]
	SubspaceRotationAdjust: set factor to 0.789
ElecMinimize: Iter:   4  F: -1425.822310988785603  |grad|_K:  6.312e-08  alpha:  6.014e-01  linmin:  3.651e-05  t[s]:  13900.34
	Linear fluid (dielectric constant: 78.4, screening length: 5.74355 Bohr) occupying 0.754434 of unit cell:	Completed after 2 iterations at t[s]:  13952.58
	Linear fluid (dielectric constant: 78.4, screening length: 5.74355 Bohr) occupying 0.754433 of unit cell:	Completed after 0 iterations at t[s]:  14003.14
	FillingsUpdate:  mu: -0.147101349  nElectrons: 416.500000  magneticMoment: [ Abs: 0.00170  Tot: +0.00002 ]
	SubspaceRotationAdjust: set factor to 0.669
ElecMinimize: Iter:   5  F: -1425.822311620174105  |grad|_K:  4.020e-08  alpha:  3.501e-01  linmin:  1.231e-04  t[s]:  14075.93
	Linear fluid (dielectric constant: 78.4, screening length: 5.74355 Bohr) occupying 0.754433 of unit cell:	Completed after 2 iterations at t[s]:  14128.25
	Linear fluid (dielectric constant: 78.4, screening length: 5.74355 Bohr) occupying 0.754433 of unit cell:	Completed after 0 iterations at t[s]:  14179.11
	FillingsUpdate:  mu: -0.147167300  nElectrons: 416.500000  magneticMoment: [ Abs: 0.00139  Tot: +0.00003 ]
	SubspaceRotationAdjust: set factor to 0.399
ElecMinimize: Iter:   6  F: -1425.822311676357231  |grad|_K:  2.705e-08  alpha:  1.822e-01  linmin:  4.656e-05  t[s]:  14251.49
	Linear fluid (dielectric constant: 78.4, screening length: 5.74355 Bohr) occupying 0.754433 of unit cell:	Completed after 0 iterations at t[s]:  14303.38
	Linear fluid (dielectric constant: 78.4, screening length: 5.74355 Bohr) occupying 0.754433 of unit cell:	Completed after 1 iterations at t[s]:  14355.52
	FillingsUpdate:  mu: -0.147130017  nElectrons: 416.500000  magneticMoment: [ Abs: 0.00089  Tot: +0.00005 ]
	SubspaceRotationAdjust: set factor to 0.297
ElecMinimize: Iter:   7  F: -1425.822311740411351  |grad|_K:  1.649e-08  alpha:  5.132e-01  linmin:  1.011e-04  t[s]:  14428.54
	Linear fluid (dielectric constant: 78.4, screening length: 5.74355 Bohr) occupying 0.754433 of unit cell:	Completed after 0 iterations at t[s]:  14480.38
	Linear fluid (dielectric constant: 78.4, screening length: 5.74355 Bohr) occupying 0.754433 of unit cell:	Completed after 0 iterations at t[s]:  14530.79
	FillingsUpdate:  mu: -0.147130034  nElectrons: 416.500000  magneticMoment: [ Abs: 0.00072  Tot: +0.00004 ]
	SubspaceRotationAdjust: set factor to 0.421
ElecMinimize: Iter:   8  F: -1425.822311777758614  |grad|_K:  9.772e-09  alpha:  4.361e-01  linmin: -2.713e-06  t[s]:  14603.00
	Linear fluid (dielectric constant: 78.4, screening length: 5.74355 Bohr) occupying 0.754432 of unit cell:	Completed after 0 iterations at t[s]:  14654.82
	Linear fluid (dielectric constant: 78.4, screening length: 5.74355 Bohr) occupying 0.754432 of unit cell:	Completed after 0 iterations at t[s]:  14704.98
	FillingsUpdate:  mu: -0.147129729  nElectrons: 416.500000  magneticMoment: [ Abs: 0.00058  Tot: +0.00001 ]
	SubspaceRotationAdjust: set factor to 0.516
ElecMinimize: Iter:   9  F: -1425.822311803882258  |grad|_K:  8.151e-09  alpha:  6.074e-01  linmin: -1.756e-05  t[s]:  14777.47
	Linear fluid (dielectric constant: 78.4, screening length: 5.74355 Bohr) occupying 0.754432 of unit cell:	Completed after 1 iterations at t[s]:  14829.36
	Linear fluid (dielectric constant: 78.4, screening length: 5.74355 Bohr) occupying 0.754432 of unit cell:	Completed after 0 iterations at t[s]:  14880.12
ElecMinimize: 	Step increased F by 1.541503e-08, reducing alpha to 1.822497e-02.
	Linear fluid (dielectric constant: 78.4, screening length: 5.74355 Bohr) occupying 0.754432 of unit cell:	Completed after 0 iterations at t[s]:  14995.48
ElecMinimize: 	Step increased F by 1.589160e-08, reducing alpha to 1.822497e-03.
	Linear fluid (dielectric constant: 78.4, screening length: 5.74355 Bohr) occupying 0.754432 of unit cell:	Completed after 0 iterations at t[s]:  15110.61
ElecMinimize: 	Step increased F by 1.610078e-08, reducing alpha to 1.822497e-04.
ElecMinimize: 	Step failed to reduce F after 3 attempts. Quitting step.
ElecMinimize: 	Undoing step.
	Linear fluid (dielectric constant: 78.4, screening length: 5.74355 Bohr) occupying 0.754432 of unit cell:	Completed after 0 iterations at t[s]:  15225.85
ElecMinimize: 	Step failed: resetting search direction.
	FillingsUpdate:  mu: -0.147142709  nElectrons: 416.500000  magneticMoment: [ Abs: 0.00058  Tot: +0.00001 ]
	SubspaceRotationAdjust: set factor to 0.508
ElecMinimize: Iter:  10  F: -1425.822311787807621  |grad|_K:  9.579e-09  alpha:  1.822e-04
	Linear fluid (dielectric constant: 78.4, screening length: 5.74355 Bohr) occupying 0.754432 of unit cell:	Completed after 0 iterations at t[s]:  15350.04
	Linear fluid (dielectric constant: 78.4, screening length: 5.74355 Bohr) occupying 0.754432 of unit cell:	Completed after 0 iterations at t[s]:  15400.21
	FillingsUpdate:  mu: -0.147142856  nElectrons: 416.500000  magneticMoment: [ Abs: 0.00036  Tot: +0.00001 ]
	SubspaceRotationAdjust: set factor to 0.678
ElecMinimize: Iter:  11  F: -1425.822311810464953  |grad|_K:  6.124e-09  alpha:  5.633e-01  linmin: -4.596e-06  t[s]:  15472.44
	Linear fluid (dielectric constant: 78.4, screening length: 5.74355 Bohr) occupying 0.754432 of unit cell:	Completed after 1 iterations at t[s]:  15525.56
	Linear fluid (dielectric constant: 78.4, screening length: 5.74355 Bohr) occupying 0.754432 of unit cell:	Completed after 0 iterations at t[s]:  15576.37
ElecMinimize: 	Step increased F by 1.580406e-08, reducing alpha to 1.256835e-02.
	Linear fluid (dielectric constant: 78.4, screening length: 5.74355 Bohr) occupying 0.754432 of unit cell:	Completed after 0 iterations at t[s]:  15692.18
ElecMinimize: 	Step increased F by 1.511535e-08, reducing alpha to 1.256835e-03.
	Linear fluid (dielectric constant: 78.4, screening length: 5.74355 Bohr) occupying 0.754432 of unit cell:	Completed after 0 iterations at t[s]:  15807.11
ElecMinimize: 	Step increased F by 1.506874e-08, reducing alpha to 1.256835e-04.
ElecMinimize: 	Step failed to reduce F after 3 attempts. Quitting step.
ElecMinimize: 	Undoing step.
	Linear fluid (dielectric constant: 78.4, screening length: 5.74355 Bohr) occupying 0.754432 of unit cell:	Completed after 0 iterations at t[s]:  15923.09
ElecMinimize: 	Step failed: resetting search direction.
	FillingsUpdate:  mu: -0.147134923  nElectrons: 416.500000  magneticMoment: [ Abs: 0.00036  Tot: +0.00001 ]
	SubspaceRotationAdjust: set factor to 0.626
ElecMinimize: Iter:  12  F: -1425.822311795393034  |grad|_K:  8.620e-09  alpha:  1.257e-04
	Linear fluid (dielectric constant: 78.4, screening length: 5.74355 Bohr) occupying 0.754432 of unit cell:	Completed after 0 iterations at t[s]:  16047.34
	Linear fluid (dielectric constant: 78.4, screening length: 5.74355 Bohr) occupying 0.754432 of unit cell:	Completed after 0 iterations at t[s]:  16097.59
	FillingsUpdate:  mu: -0.147134455  nElectrons: 416.500000  magneticMoment: [ Abs: 0.00034  Tot: +0.00001 ]
	SubspaceRotationAdjust: set factor to 0.934
ElecMinimize: Iter:  13  F: -1425.822311818139724  |grad|_K:  7.558e-09  alpha:  7.003e-01  linmin:  4.218e-06  t[s]:  16170.14
	Linear fluid (dielectric constant: 78.4, screening length: 5.74355 Bohr) occupying 0.754431 of unit cell:	Completed after 2 iterations at t[s]:  16222.39
	Linear fluid (dielectric constant: 78.4, screening length: 5.74355 Bohr) occupying 0.754432 of unit cell:	Completed after 0 iterations at t[s]:  16273.32
	FillingsUpdate:  mu: -0.147192450  nElectrons: 416.500000  magneticMoment: [ Abs: 0.00032  Tot: +0.00001 ]
	SubspaceRotationAdjust: set factor to 0.595
ElecMinimize: Iter:  14  F: -1425.822311824144663  |grad|_K:  4.000e-08  alpha:  6.482e-02  linmin:  1.584e-04  t[s]:  16345.85
ElecMinimize: 	Bad step direction: g.d > 0.
ElecMinimize: 	Undoing step.
	Linear fluid (dielectric constant: 78.4, screening length: 5.74355 Bohr) occupying 0.754432 of unit cell:	Completed after 0 iterations at t[s]:  16397.96
ElecMinimize: 	Step failed: resetting search direction.
	FillingsUpdate:  mu: -0.147192450  nElectrons: 416.500000  magneticMoment: [ Abs: 0.00032  Tot: +0.00001 ]
	SubspaceRotationAdjust: set factor to 0.425
ElecMinimize: Iter:  15  F: -1425.822311824162398  |grad|_K:  3.382e-08  alpha:  0.000e+00
ElecMinimize: Converged (|Delta F|<1.000000e-08 for 2 iters).
Setting wave functions to eigenvectors of Hamiltonian

# Ionic positions in lattice coordinates:
ion Mo   0.083348482671888   0.166651507098945   0.500000000000000 1
ion Mo   0.333348482671888   0.166651507098945   0.500000000000000 1
ion Mo   0.583348482671888   0.166651507098945   0.500000000000000 1
ion Mo   0.833348482671888   0.166651507098945   0.500000000000000 1
ion Mo   0.083348482671888   0.416651507098945   0.500000000000000 1
ion Mo   0.333348482671888   0.416651507098945   0.500000000000000 1
ion Mo   0.583348482671888   0.416651507098945   0.500000000000000 1
ion Mo   0.833348482671888   0.416651507098945   0.500000000000000 1
ion Mo   0.083348482671888   0.666651507098945   0.500000000000000 1
ion Mo   0.333348482671888   0.666651507098945   0.500000000000000 1
ion Mo   0.583348482671888   0.666651507098945   0.500000000000000 1
ion Mo   0.833348482671888   0.666651507098945   0.500000000000000 1
ion Mo   0.083348482671888   0.916651507098945   0.500000000000000 1
ion Mo   0.333348482671888   0.916651507098945   0.500000000000000 1
ion Mo   0.583348482671888   0.916651507098945   0.500000000000000 1
ion Mo   0.833348482671888   0.916651507098945   0.500000000000000 1
ion S   0.166660763820306   0.083339225950527   0.586570383770190 1
ion S   0.166660763820306   0.083339225950527   0.413429616229810 1
ion S   0.416660763820306   0.083339225950527   0.586570383770190 1
ion S   0.416660763820306   0.083339225950527   0.413429616229810 1
ion S   0.666660763820306   0.083339225950527   0.586570383770190 1
ion S   0.666660763820306   0.083339225950527   0.413429616229810 1
ion S   0.916660763820306   0.083339225950527   0.586570383770190 1
ion S   0.916660763820306   0.083339225950527   0.413429616229810 1
ion S   0.166660763820306   0.333339225950527   0.586570383770190 1
ion S   0.166660763820306   0.333339225950527   0.413429616229810 1
ion S   0.416660763820306   0.333339225950527   0.586570383770190 1
ion S   0.416660763820306   0.333339225950527   0.413429616229810 1
ion S   0.666660763820306   0.333339225950527   0.586570383770190 1
ion S   0.666660763820306   0.333339225950527   0.413429616229810 1
ion S   0.916660763820306   0.333339225950527   0.586570383770190 1
ion S   0.916660763820306   0.333339225950527   0.413429616229810 1
ion S   0.166660763820306   0.583339225950527   0.586570383770190 1
ion S   0.166660763820306   0.583339225950527   0.413429616229810 1
ion S   0.416660763820306   0.583339225950527   0.586570383770190 1
ion S   0.416660763820306   0.583339225950527   0.413429616229810 1
ion S   0.666660763820306   0.583339225950527   0.586570383770190 1
ion S   0.666660763820306   0.583339225950527   0.413429616229810 1
ion S   0.916660763820306   0.583339225950527   0.586570383770190 1
ion S   0.916660763820306   0.583339225950527   0.413429616229810 1
ion S   0.166660763820306   0.833339225950527   0.586570383770190 1
ion S   0.166660763820306   0.833339225950527   0.413429616229810 1
ion S   0.416660763820306   0.833339225950527   0.586570383770190 1
ion S   0.416660763820306   0.833339225950527   0.413429616229810 1
ion S   0.666660763820306   0.833339225950527   0.586570383770190 1
ion S   0.666660763820306   0.833339225950527   0.413429616229810 1
ion S   0.916660763820306   0.833339225950527   0.586570383770190 1
ion S   0.916660763820306   0.833339225950527   0.413429616229810 1


# Forces in Lattice coordinates:
force Mo  -0.002598128402667   0.002598128402667  -0.000000000000000 1
force Mo  -0.002598128402667   0.002598128402667   0.000000000000000 1
force Mo  -0.002598128402667   0.002598128402667  -0.000000000000000 1
force Mo  -0.002598128402667   0.002598128402667  -0.000000000000000 1
force Mo  -0.002598128402667   0.002598128402667  -0.000000000000000 1
force Mo  -0.002598128402667   0.002598128402667   0.000000000000000 1
force Mo  -0.002598128402667   0.002598128402667   0.000000000000000 1
force Mo  -0.002598128402667   0.002598128402667   0.000000000000000 1
force Mo  -0.002598128402667   0.002598128402667   0.000000000000000 1
force Mo  -0.002598128402667   0.002598128402667   0.000000000000000 1
force Mo  -0.002598128402667   0.002598128402667   0.000000000000000 1
force Mo  -0.002598128402667   0.002598128402667   0.000000000000000 1
force Mo  -0.002598128402667   0.002598128402667   0.000000000000000 1
force Mo  -0.002598128402667   0.002598128402667  -0.000000000000000 1
force Mo  -0.002598128402667   0.002598128402667   0.000000000000000 1
force Mo  -0.002598128402667   0.002598128402667   0.000000000000000 1
force S   0.001818953007452  -0.001818953007452   0.000584504217598 1
force S   0.001818953007452  -0.001818953007452  -0.000584504217485 1
force S   0.001818953007452  -0.001818953007452   0.000584504217598 1
force S   0.001818953007452  -0.001818953007452  -0.000584504217712 1
force S   0.001818953007452  -0.001818953007452   0.000584504217711 1
force S   0.001818953007452  -0.001818953007452  -0.000584504217599 1
force S   0.001818953007452  -0.001818953007452   0.000584504217485 1
force S   0.001818953007452  -0.001818953007452  -0.000584504217712 1
force S   0.001818953007452  -0.001818953007452   0.000584504217483 1
force S   0.001818953007452  -0.001818953007452  -0.000584504217599 1
force S   0.001818953007452  -0.001818953007452   0.000584504217484 1
force S   0.001818953007452  -0.001818953007452  -0.000584504217598 1
force S   0.001818953007452  -0.001818953007452   0.000584504217596 1
force S   0.001818953007452  -0.001818953007452  -0.000584504217713 1
force S   0.001818953007452  -0.001818953007452   0.000584504217597 1
force S   0.001818953007452  -0.001818953007452  -0.000584504217598 1
force S   0.001818953007452  -0.001818953007452   0.000584504217712 1
force S   0.001818953007452  -0.001818953007452  -0.000584504217597 1
force S   0.001818953007452  -0.001818953007452   0.000584504217485 1
force S   0.001818953007452  -0.001818953007452  -0.000584504217712 1
force S   0.001818953007452  -0.001818953007452   0.000584504217597 1
force S   0.001818953007452  -0.001818953007452  -0.000584504217597 1
force S   0.001818953007452  -0.001818953007452   0.000584504217599 1
force S   0.001818953007452  -0.001818953007452  -0.000584504217485 1
force S   0.001818953007452  -0.001818953007452   0.000584504217598 1
force S   0.001818953007452  -0.001818953007452  -0.000584504217712 1
force S   0.001818953007452  -0.001818953007452   0.000584504217485 1
force S   0.001818953007452  -0.001818953007452  -0.000584504217599 1
force S   0.001818953007452  -0.001818953007452   0.000584504217371 1
force S   0.001818953007452  -0.001818953007452  -0.000584504217485 1
force S   0.001818953007452  -0.001818953007452   0.000584504217600 1
force S   0.001818953007452  -0.001818953007452  -0.000584504217598 1

# Energy components:
   A_diel =       -0.0393002038118954
   Eewald =     8820.2453539906873630
       EH =    10023.6708187860258477
     Eloc =   -20673.2781575535846059
      Enl =      260.8896258699911641
      Exc =     -290.5045956046689071
 Exc_core =       76.0956982815362153
       KE =      357.1159533260064336
  MuShift =       -0.0060881081552771
-------------------------------------
     Etot =    -1425.8106912159728381
       TS =        0.0116206081895366
-------------------------------------
        F =    -1425.8223118241623979

IonicMinimize: Iter:   2  F: -1425.822311824162398  |grad|_K:  5.863e-05  alpha:  1.000e+00  linmin:  2.074e-01  t[s]:  16497.08
IonicMinimize: Converged (|grad|_K<1.000000e-04).

#--- Lowdin population analysis ---
# oxidation-state Mo -0.509 -0.509 -0.509 -0.509 -0.509 -0.509 -0.509 -0.509 -0.509 -0.509 -0.509 -0.509 -0.509 -0.509 -0.509 -0.509
# magnetic-moments Mo -0.000 -0.000 -0.000 -0.000 -0.000 -0.000 -0.000 -0.000 -0.000 -0.000 -0.000 -0.000 -0.000 -0.000 -0.000 -0.000
# oxidation-state S +0.306 +0.306 +0.306 +0.306 +0.306 +0.306 +0.306 +0.306 +0.306 +0.306 +0.306 +0.306 +0.306 +0.306 +0.306 +0.306 +0.306 +0.306 +0.306 +0.306 +0.306 +0.306 +0.306 +0.306 +0.306 +0.306 +0.306 +0.306 +0.306 +0.306 +0.306 +0.306
# magnetic-moments S +0.000 +0.000 +0.000 +0.000 +0.000 +0.000 +0.000 +0.000 +0.000 +0.000 +0.000 +0.000 +0.000 +0.000 +0.000 +0.000 +0.000 +0.000 +0.000 +0.000 +0.000 +0.000 +0.000 +0.000 +0.000 +0.000 +0.000 +0.000 +0.000 +0.000 +0.000 +0.000


Dumping 'NbTe2.fillings' ... done
Dumping 'NbTe2.wfns' ... done
Dumping 'NbTe2.fluidState' ... done
Dumping 'NbTe2.ionpos' ... done
Dumping 'NbTe2.eigenvals' ... done
End date and time: Mon Dec 28 07:18:16 2020  (Duration: 0-4:35:16.61)
Done!
