
*************** JDFTx 1.5.0  ***************

Start date and time: Thu Apr  1 10:03:38 2021
Executable jdftx_gpu with command-line: -i Charged.in -o Charged.out
Running on hosts (process indices):  amax (0-6)
Divided in process groups (process indices):  0 (0)  1 (1)  2 (2)  3 (3)  4 (4)  5 (5)  6 (6)
gpuInit: Found compatible cuda device 0 'Tesla K80'
gpuInit: Found compatible cuda device 1 'Tesla K80'
gpuInit: Found compatible cuda device 2 'Tesla K80'
gpuInit: Found compatible cuda device 3 'Tesla K80'
gpuInit: Found compatible cuda device 4 'Tesla K80'
gpuInit: Found compatible cuda device 5 'Tesla K80'
gpuInit: Found compatible cuda device 6 'Tesla K80'
gpuInit: Selected device 0
Resource initialization completed at t[s]:      3.56
Run totals: 7 processes, 24 threads, 7 GPUs


Input parsed successfully to the following command list (including defaults):

basis kpoint-dependent
cache-projectors no
coords-type Lattice
core-overlap-check none
coulomb-interaction Slab 001
coulomb-truncation-embed 0.5 0.5 0.5
davidson-band-ratio 1.1
dump End State
dump-name NbTe2.$VAR
elec-cutoff 20
elec-eigen-algo Davidson
elec-ex-corr gga-PBE
elec-initial-charge 0.500000
elec-smearing Gauss 0.0073499
electronic-minimize  \
	dirUpdateScheme      FletcherReeves \
	linminMethod         DirUpdateRecommended \
	nIterations          200 \
	history              15 \
	knormThreshold       0 \
	energyDiffThreshold  1e-08 \
	nEnergyDiff          2 \
	alphaTstart          1 \
	alphaTmin            1e-10 \
	updateTestStepSize   yes \
	alphaTreduceFactor   0.1 \
	alphaTincreaseFactor 3 \
	nAlphaAdjustMax      3 \
	wolfeEnergy          0.0001 \
	wolfeGradient        0.9 \
	fdTest               no
exchange-regularization WignerSeitzTruncated
fluid LinearPCM 298.000000 1.013250
fluid-anion F- 1 MeanFieldLJ \
	epsBulk 1 \
	pMol 0 \
	epsInf 1 \
	Pvap 0 \
	sigmaBulk 0 \
	Rvdw 2.24877 \
	Res 0 \
	tauNuc 343133
fluid-cation Na+ 1 MeanFieldLJ \
	epsBulk 1 \
	pMol 0 \
	epsInf 1 \
	Pvap 0 \
	sigmaBulk 0 \
	Rvdw 2.19208 \
	Res 0 \
	tauNuc 343133
fluid-ex-corr lda-TF lda-PZ
fluid-gummel-loop 10 1.000000e-05
fluid-minimize  \
	dirUpdateScheme      PolakRibiere \
	linminMethod         DirUpdateRecommended \
	nIterations          400 \
	history              15 \
	knormThreshold       1e-11 \
	energyDiffThreshold  0 \
	nEnergyDiff          2 \
	alphaTstart          1 \
	alphaTmin            1e-10 \
	updateTestStepSize   yes \
	alphaTreduceFactor   0.1 \
	alphaTincreaseFactor 3 \
	nAlphaAdjustMax      6 \
	wolfeEnergy          0.0001 \
	wolfeGradient        0.9 \
	fdTest               no
fluid-solvent H2O 55.338 ScalarEOS \
	epsBulk 78.4 \
	pMol 0.92466 \
	epsInf 1.77 \
	Pvap 1.06736e-10 \
	sigmaBulk 4.62e-05 \
	Rvdw 2.61727 \
	Res 1.42 \
	tauNuc 343133 \
	poleEl 15 7 1
forces-output-coords Positions
initial-state NbTe2.$VAR
ion C   0.167454248459894   0.083932301100728   0.557295694344403 1
ion C   0.084168255733299   0.167283603018563   0.442712607455854 1
ion C   0.417454248459894   0.083932301100728   0.557295694344403 1
ion C   0.334168255733299   0.167283603018563   0.442712607455854 1
ion C   0.667454248459894   0.083932301100728   0.557295694344403 1
ion C   0.584168255733299   0.167283603018563   0.442712607455854 1
ion C   0.917454248459894   0.083932301100728   0.557295694344403 1
ion C   0.834168255733299   0.167283603018563   0.442712607455854 1
ion C   0.167454248459894   0.333932301100728   0.557295694344403 1
ion C   0.084168255733299   0.417283603018563   0.442712607455854 1
ion C   0.417454248459894   0.333932301100728   0.557295694344403 1
ion C   0.334168255733299   0.417283603018563   0.442712607455854 1
ion C   0.667454248459894   0.333932301100728   0.557295694344403 1
ion C   0.584168255733299   0.417283603018563   0.442712607455854 1
ion C   0.917454248459894   0.333932301100728   0.557295694344403 1
ion C   0.834168255733299   0.417283603018563   0.442712607455854 1
ion C   0.167454248459894   0.583932301100728   0.557295694344403 1
ion C   0.084168255733299   0.667283603018563   0.442712607455854 1
ion C   0.417454248459894   0.583932301100728   0.557295694344403 1
ion C   0.334168255733299   0.667283603018563   0.442712607455854 1
ion C   0.667454248459894   0.583932301100728   0.557295694344403 1
ion C   0.584168255733299   0.667283603018563   0.442712607455854 1
ion C   0.917454248459894   0.583932301100728   0.557295694344403 1
ion C   0.834168255733299   0.667283603018563   0.442712607455854 1
ion C   0.167454248459894   0.833932301100728   0.557295694344403 1
ion C   0.084168255733299   0.917283603018563   0.442712607455854 1
ion C   0.417454248459894   0.833932301100728   0.557295694344403 1
ion C   0.334168255733299   0.917283603018563   0.442712607455854 1
ion C   0.667454248459894   0.833932301100728   0.557295694344403 1
ion C   0.584168255733299   0.917283603018563   0.442712607455854 1
ion C   0.917454248459894   0.833932301100728   0.557295694344403 1
ion C   0.834168255733299   0.917283603018563   0.442712607455854 1
ion Ti   0.000707133590249   0.000528530881105   0.500005673079691 1
ion Ti   0.084056284511458   0.167207045170162   0.617113083023031 1
ion Ti   0.167466284317293   0.083935586185678   0.382892326537440 1
ion Ti   0.250707133590249   0.000528530881105   0.500005673079691 1
ion Ti   0.334056284511458   0.167207045170162   0.617113083023031 1
ion Ti   0.417466284317293   0.083935586185678   0.382892326537440 1
ion Ti   0.500707133590249   0.000528530881105   0.500005673079691 1
ion Ti   0.584056284511458   0.167207045170162   0.617113083023031 1
ion Ti   0.667466284317293   0.083935586185678   0.382892326537440 1
ion Ti   0.750707133590249   0.000528530881105   0.500005673079691 1
ion Ti   0.834056284511458   0.167207045170162   0.617113083023031 1
ion Ti   0.917466284317293   0.083935586185678   0.382892326537440 1
ion Ti   0.000707133590249   0.250528530881105   0.500005673079691 1
ion Ti   0.084056284511458   0.417207045170162   0.617113083023031 1
ion Ti   0.167466284317293   0.333935586185677   0.382892326537440 1
ion Ti   0.250707133590249   0.250528530881105   0.500005673079691 1
ion Ti   0.334056284511458   0.417207045170162   0.617113083023031 1
ion Ti   0.417466284317293   0.333935586185677   0.382892326537440 1
ion Ti   0.500707133590249   0.250528530881105   0.500005673079691 1
ion Ti   0.584056284511458   0.417207045170162   0.617113083023031 1
ion Ti   0.667466284317293   0.333935586185677   0.382892326537440 1
ion Ti   0.750707133590249   0.250528530881105   0.500005673079691 1
ion Ti   0.834056284511458   0.417207045170162   0.617113083023031 1
ion Ti   0.917466284317293   0.333935586185677   0.382892326537440 1
ion Ti   0.000707133590249   0.500528530881105   0.500005673079691 1
ion Ti   0.084056284511458   0.667207045170162   0.617113083023031 1
ion Ti   0.167466284317293   0.583935586185678   0.382892326537440 1
ion Ti   0.250707133590249   0.500528530881105   0.500005673079691 1
ion Ti   0.334056284511458   0.667207045170162   0.617113083023031 1
ion Ti   0.417466284317293   0.583935586185678   0.382892326537440 1
ion Ti   0.500707133590249   0.500528530881105   0.500005673079691 1
ion Ti   0.584056284511458   0.667207045170162   0.617113083023031 1
ion Ti   0.667466284317293   0.583935586185678   0.382892326537440 1
ion Ti   0.750707133590249   0.500528530881105   0.500005673079691 1
ion Ti   0.834056284511458   0.667207045170162   0.617113083023031 1
ion Ti   0.917466284317293   0.583935586185678   0.382892326537440 1
ion Ti   0.000707133590249   0.750528530881105   0.500005673079691 1
ion Ti   0.084056284511458   0.917207045170162   0.617113083023031 1
ion Ti   0.167466284317293   0.833935586185678   0.382892326537440 1
ion Ti   0.250707133590249   0.750528530881105   0.500005673079691 1
ion Ti   0.334056284511458   0.917207045170162   0.617113083023031 1
ion Ti   0.417466284317293   0.833935586185678   0.382892326537440 1
ion Ti   0.500707133590249   0.750528530881105   0.500005673079691 1
ion Ti   0.584056284511458   0.917207045170162   0.617113083023031 1
ion Ti   0.667466284317293   0.833935586185678   0.382892326537440 1
ion Ti   0.750707133590249   0.750528530881105   0.500005673079691 1
ion Ti   0.834056284511458   0.917207045170162   0.617113083023031 1
ion Ti   0.917466284317293   0.833935586185678   0.382892326537440 1
ion O   0.000765137994074   0.000604888857194   0.659136780199781 1
ion O   0.000942736956232   0.000667975036571   0.340873800359799 1
ion O   0.250765137994074   0.000604888857194   0.659136780199781 1
ion O   0.250942736956232   0.000667975036571   0.340873800359799 1
ion O   0.500765137994074   0.000604888857194   0.659136780199781 1
ion O   0.500942736956232   0.000667975036571   0.340873800359799 1
ion O   0.750765137994074   0.000604888857194   0.659136780199781 1
ion O   0.750942736956232   0.000667975036571   0.340873800359799 1
ion O   0.000765137994074   0.250604888857194   0.659136780199781 1
ion O   0.000942736956232   0.250667975036571   0.340873800359799 1
ion O   0.250765137994074   0.250604888857194   0.659136780199781 1
ion O   0.250942736956232   0.250667975036571   0.340873800359799 1
ion O   0.500765137994074   0.250604888857194   0.659136780199781 1
ion O   0.500942736956232   0.250667975036571   0.340873800359799 1
ion O   0.750765137994074   0.250604888857194   0.659136780199781 1
ion O   0.750942736956232   0.250667975036571   0.340873800359799 1
ion O   0.000765137994074   0.500604888857194   0.659136780199781 1
ion O   0.000942736956232   0.500667975036570   0.340873800359799 1
ion O   0.250765137994074   0.500604888857194   0.659136780199781 1
ion O   0.250942736956232   0.500667975036570   0.340873800359799 1
ion O   0.500765137994074   0.500604888857194   0.659136780199781 1
ion O   0.500942736956232   0.500667975036570   0.340873800359799 1
ion O   0.750765137994074   0.500604888857194   0.659136780199781 1
ion O   0.750942736956232   0.500667975036570   0.340873800359799 1
ion O   0.000765137994074   0.750604888857194   0.659136780199781 1
ion O   0.000942736956232   0.750667975036570   0.340873800359799 1
ion O   0.250765137994074   0.750604888857194   0.659136780199781 1
ion O   0.250942736956232   0.750667975036570   0.340873800359799 1
ion O   0.500765137994074   0.750604888857194   0.659136780199781 1
ion O   0.500942736956232   0.750667975036570   0.340873800359799 1
ion O   0.750765137994074   0.750604888857194   0.659136780199781 1
ion O   0.750942736956232   0.750667975036570   0.340873800359799 1
ion-species GBRV/$ID_pbe.uspp
ion-width Ecut
ionic-minimize  \
	dirUpdateScheme      L-BFGS \
	linminMethod         DirUpdateRecommended \
	nIterations          500 \
	history              15 \
	knormThreshold       0.0001 \
	energyDiffThreshold  1e-06 \
	nEnergyDiff          2 \
	alphaTstart          1 \
	alphaTmin            1e-10 \
	updateTestStepSize   yes \
	alphaTreduceFactor   0.1 \
	alphaTincreaseFactor 3 \
	nAlphaAdjustMax      3 \
	wolfeEnergy          0.0001 \
	wolfeGradient        0.9 \
	fdTest               no
kpoint   0.000000000000   0.000000000000   0.000000000000  1.00000000000000
kpoint-folding 3 3 1 
latt-move-scale 1 1 1
latt-scale 1.88973 1.88973 1.88973 
lattice Triclinic 12.0174 12.0182 21.9917 90 90 119.998
lattice-minimize  \
	dirUpdateScheme      L-BFGS \
	linminMethod         DirUpdateRecommended \
	nIterations          0 \
	history              15 \
	knormThreshold       0 \
	energyDiffThreshold  1e-06 \
	nEnergyDiff          2 \
	alphaTstart          1 \
	alphaTmin            1e-10 \
	updateTestStepSize   yes \
	alphaTreduceFactor   0.1 \
	alphaTincreaseFactor 3 \
	nAlphaAdjustMax      3 \
	wolfeEnergy          0.0001 \
	wolfeGradient        0.9 \
	fdTest               no
lcao-params -1 1e-06 0.0073499
pcm-variant CANDLE
spintype no-spin
subspace-rotation-factor 1 yes
symmetries automatic
symmetry-threshold 0.0001



---------- Setting up symmetries ----------

Found 24 point-group symmetries of the bravais lattice
Found 16 space-group symmetries with basis
Applied RMS atom displacement 5.64462e-15 bohrs to make symmetries exact.

---------- Initializing the Grid ----------
R = 
[    22.7096   -11.3548          0  ]
[          0    19.6688          0  ]
[          0          0    41.5583  ]
unit cell volume = 18562.9
G =
[   0.276675   0.159724         -0  ]
[          0   0.319449          0  ]
[          0         -0    0.15119  ]
Minimum fftbox size, Smin = [  92  92  168  ]
Chosen fftbox size, S = [  96  96  168  ]

---------- Exchange Correlation functional ----------
Initalized PBE GGA exchange.
Initalized PBE GGA correlation.

---------- Setting up pseudopotentials ----------
Width of ionic core gaussian charges (only for fluid interactions / plotting) set to 0.397384

Reading pseudopotential file '/home/guoxy/vasp/jdftx-1.5.0/build/pseudopotentials/GBRV/c_pbe.uspp':
  Title: C.  Created by USPP 7.3.6 on 3-2-2014
  Reference state energy: -5.406344.  4 valence electrons in orbitals:
    |200>  occupation: 2  eigenvalue: -0.504890
    |210>  occupation: 2  eigenvalue: -0.194356
  lMax: 1  lLocal: 2  QijEcut: 5
  4 projectors sampled on a log grid with 503 points:
    l: 0  eig: -0.504890  rCut: 1.3
    l: 0  eig: 0.000000  rCut: 1.3
    l: 1  eig: -0.194357  rCut: 1.3
    l: 1  eig: 0.000000  rCut: 1.3
  Partial core density with radius 1.1
  Transforming core density to a uniform radial grid of dG=0.02 with 1477 points.
  Transforming local potential to a uniform radial grid of dG=0.02 with 1477 points.
  Transforming nonlocal projectors to a uniform radial grid of dG=0.02 with 432 points.
  Transforming density augmentations to a uniform radial grid of dG=0.02 with 1477 points.
  Transforming atomic orbitals to a uniform radial grid of dG=0.02 with 432 points.
  Core radius for overlap checks: 1.30 bohrs.

Reading pseudopotential file '/home/guoxy/vasp/jdftx-1.5.0/build/pseudopotentials/GBRV/ti_pbe.uspp':
  Title: Ti.  Created by USPP 7.3.6 on 31-3-15
  Reference state energy: -59.020943.  12 valence electrons in orbitals:
    |300>  occupation: 2  eigenvalue: -2.777623
    |310>  occupation: 6  eigenvalue: -1.894596
    |400>  occupation: 2  eigenvalue: -0.438610
    |320>  occupation: 1  eigenvalue: -0.583119
  lMax: 2  lLocal: 3  QijEcut: 6
  6 projectors sampled on a log grid with 597 points:
    l: 0  eig: -2.777624  rCut: 1.8
    l: 0  eig: -0.438611  rCut: 1.8
    l: 1  eig: -1.894596  rCut: 1.8
    l: 1  eig: 0.500000  rCut: 1.8
    l: 2  eig: -0.583118  rCut: 1.8
    l: 2  eig: 0.150000  rCut: 1.8
  Partial core density with radius 0.8
  Transforming core density to a uniform radial grid of dG=0.02 with 1477 points.
  Transforming local potential to a uniform radial grid of dG=0.02 with 1477 points.
  Transforming nonlocal projectors to a uniform radial grid of dG=0.02 with 432 points.
  Transforming density augmentations to a uniform radial grid of dG=0.02 with 1477 points.
  Transforming atomic orbitals to a uniform radial grid of dG=0.02 with 432 points.
  Core radius for overlap checks: 1.80 bohrs.

Reading pseudopotential file '/home/guoxy/vasp/jdftx-1.5.0/build/pseudopotentials/GBRV/o_pbe.uspp':
  Title: O.  Created by USPP 7.3.6 on 3-2-2014
  Reference state energy: -15.894388.  6 valence electrons in orbitals:
    |200>  occupation: 2  eigenvalue: -0.878823
    |210>  occupation: 4  eigenvalue: -0.332131
  lMax: 2  lLocal: 2  QijEcut: 6
  5 projectors sampled on a log grid with 511 points:
    l: 0  eig: -0.878823  rCut: 1.25
    l: 0  eig: 0.000000  rCut: 1.25
    l: 1  eig: -0.332132  rCut: 1.25
    l: 1  eig: 0.000000  rCut: 1.25
    l: 2  eig: 1.000000  rCut: 1.25
  Partial core density with radius 0.7
  Transforming core density to a uniform radial grid of dG=0.02 with 1477 points.
  Transforming local potential to a uniform radial grid of dG=0.02 with 1477 points.
  Transforming nonlocal projectors to a uniform radial grid of dG=0.02 with 432 points.
  Transforming density augmentations to a uniform radial grid of dG=0.02 with 1477 points.
  Transforming atomic orbitals to a uniform radial grid of dG=0.02 with 432 points.
  Core radius for overlap checks: 1.25 bohrs.

Initialized 3 species with 112 total atoms.

Folded 1 k-points by 3x3x1 to 9 k-points.

---------- Setting up k-points, bands, fillings ----------
Adding inversion symmetry to k-mesh for non-inversion-symmetric unit cell.
Reduced to 5 k-points under symmetry. 
Computing the number of bands and number of electrons
Calculating initial fillings.
nElectrons: 896.500000   nBands: 736   nStates: 5

----- Setting up reduced wavefunction bases (one per k-point) -----
average nbasis = 79305.444 , ideal nbasis = 79302.148

---------- Setting up coulomb interaction ----------
Fluid mode embedding: using embedded box, but periodic Coulomb kernel.
(Fluid response is responsible for (approximate) separation between periodic images.)
Setting up double-sized grid for truncated Coulomb potentials:
R = 
[    22.7096   -11.3548          0  ]
[          0    19.6688          0  ]
[          0          0    83.1166  ]
unit cell volume = 37125.8
G =
[   0.276675   0.159724         -0  ]
[          0   0.319449          0  ]
[          0         -0  0.0755949  ]
Chosen fftbox size, S = [  96  96  336  ]
Integer grid location selected as the embedding center:
   Grid: [  48  48  84  ]
   Lattice: [  0.5  0.5  0.5  ]
   Cartesian: [  5.67742  9.83442  20.7791  ]
Constructing Wigner-Seitz cell: 8 faces (6 quadrilaterals, 2 hexagons)
Range-separation parameter for embedded mesh potentials due to point charges: 0.627457 bohrs.

Initializing van der Waals corrections
	NOTE: vdW corrections apply only for interactions with fluid.
	 C:  C6:   30.35 Eh-a0^6  R0: 2.744 a0
	Ti:  C6:  187.33 Eh-a0^6  R0: 2.952 a0
	 O:  C6:   12.14 Eh-a0^6  R0: 2.536 a0

---------- Setting up ewald sum ----------
Optimum gaussian width for ewald sums = 6.061764 bohr.
Real space sum over 405 unit cells with max indices [  4  4  2  ]
Reciprocal space sum over 10125 terms with max indices [  7  7  22  ]

---------- Allocating electronic variables ----------
Initializing wave functions:  linear combination of atomic orbitals
C pseudo-atom occupations:   s ( 2 )  p ( 2 )
Ti pseudo-atom occupations:   s ( 2 0 )  p ( 6 )  d ( 4 )
O pseudo-atom occupations:   s ( 2 )  p ( 4 )
	FillingsUpdate:  mu: +4.310297698  nElectrons: 896.500000
LCAOMinimize: Iter:   0  F: -2661.9794046806459846  |grad|_K:  3.232e-02  alpha:  1.000e+00
	FillingsUpdate:  mu: -2.249204264  nElectrons: 896.500000
LCAOMinimize: Iter:   1  F: -2970.9833165025429480  |grad|_K:  5.502e-02  alpha:  4.913e-01  linmin:  9.064e-02  cgtest: -5.369e-01  t[s]:    220.65
LCAOMinimize: 	Bad step direction: g.d > 0.
LCAOMinimize: 	Undoing step.
LCAOMinimize: 	Step failed: resetting search direction.
	FillingsUpdate:  mu: -2.249204264  nElectrons: 896.500000
LCAOMinimize: Iter:   2  F: -2970.9833165025429480  |grad|_K:  5.502e-02  alpha:  0.000e+00
	FillingsUpdate:  mu: -1.531252271  nElectrons: 896.500000
LCAOMinimize: Iter:   3  F: -3362.7015566049890367  |grad|_K:  3.240e-02  alpha:  1.274e-01  linmin: -1.162e-02  cgtest: -7.257e-02  t[s]:    331.69
	FillingsUpdate:  mu: -0.795835914  nElectrons: 896.500000
LCAOMinimize: Iter:   4  F: -3443.8054581993974352  |grad|_K:  5.790e-03  alpha:  8.266e-02  linmin: -1.396e-01  cgtest:  1.924e-01  t[s]:    396.17
LCAOMinimize: Encountered beta<0, resetting CG.
LCAOMinimize: 	Wrong curvature in test step, increasing alphaT to 2.479697e-01.
	FillingsUpdate:  mu: -0.715946910  nElectrons: 896.500000
LCAOMinimize: Iter:   5  F: -3451.8909359086542281  |grad|_K:  6.037e-03  alpha: -5.549e-01  linmin: -1.310e-01  cgtest:  8.200e-01  t[s]:    459.14
	FillingsUpdate:  mu: -0.556613821  nElectrons: 896.500000
LCAOMinimize: Iter:   6  F: -3459.0200106667016371  |grad|_K:  5.278e-03  alpha:  5.890e-02  linmin: -2.200e-01  cgtest:  9.746e-01  t[s]:    523.63
LCAOMinimize: Encountered beta<0, resetting CG.
LCAOMinimize: 	Wrong curvature in test step, increasing alphaT to 1.767146e-01.
	FillingsUpdate:  mu: -0.495153589  nElectrons: 896.500000
LCAOMinimize: Iter:   7  F: -3463.7270624589541512  |grad|_K:  5.437e-03  alpha: -5.222e-01  linmin: -1.269e-01  cgtest:  8.563e-01  t[s]:    587.51
	FillingsUpdate:  mu: -0.430554362  nElectrons: 896.500000
LCAOMinimize: Iter:   8  F: -3468.5406394887795614  |grad|_K:  4.856e-03  alpha:  5.295e-02  linmin: -2.225e-01  cgtest:  9.730e-01  t[s]:    652.66
LCAOMinimize: Encountered beta<0, resetting CG.
LCAOMinimize: 	Wrong curvature in test step, increasing alphaT to 1.588407e-01.
	FillingsUpdate:  mu: -0.411296525  nElectrons: 896.500000
LCAOMinimize: Iter:   9  F: -3472.0143419678338432  |grad|_K:  4.708e-03  alpha: -1.075e+00  linmin: -2.720e-01  cgtest:  9.191e-01  t[s]:    715.62
	FillingsUpdate:  mu: -0.396142704  nElectrons: 896.500000
LCAOMinimize: Iter:  10  F: -3475.2918484429264936  |grad|_K:  4.569e-03  alpha:  5.024e-02  linmin: -2.839e-01  cgtest:  9.152e-01  t[s]:    780.00
LCAOMinimize: 	Wrong curvature in test step, increasing alphaT to 1.507215e-01.
	FillingsUpdate:  mu: -0.381792592  nElectrons: 896.500000
LCAOMinimize: Iter:  11  F: -3478.4101704418499139  |grad|_K:  4.428e-03  alpha: -8.552e-01  linmin: -2.969e-01  cgtest:  9.115e-01  t[s]:    843.01
	FillingsUpdate:  mu: -0.364907882  nElectrons: 896.500000
LCAOMinimize: Iter:  12  F: -3481.3179720498847018  |grad|_K:  4.274e-03  alpha:  4.976e-02  linmin: -3.110e-01  cgtest:  9.103e-01  t[s]:    907.39
LCAOMinimize: 	Wrong curvature in test step, increasing alphaT to 1.492789e-01.
	FillingsUpdate:  mu: -0.342445700  nElectrons: 896.500000
LCAOMinimize: Iter:  13  F: -3484.0104722616488289  |grad|_K:  4.095e-03  alpha: -9.832e-01  linmin: -3.272e-01  cgtest:  9.099e-01  t[s]:    971.01
	FillingsUpdate:  mu: -0.313451327  nElectrons: 896.500000
LCAOMinimize: Iter:  14  F: -3486.3807400611481171  |grad|_K:  3.891e-03  alpha:  4.831e-02  linmin: -3.439e-01  cgtest:  9.134e-01  t[s]:   1036.34
LCAOMinimize: 	Wrong curvature in test step, increasing alphaT to 1.449360e-01.
	FillingsUpdate:  mu: -0.277250476  nElectrons: 896.500000
LCAOMinimize: Iter:  15  F: -3488.4764563314597581  |grad|_K:  3.647e-03  alpha: -1.988e+00  linmin: -3.605e-01  cgtest:  9.162e-01  t[s]:   1099.93
	FillingsUpdate:  mu: -0.239782680  nElectrons: 896.500000
LCAOMinimize: Iter:  16  F: -3490.1138447192415697  |grad|_K:  3.386e-03  alpha:  4.420e-02  linmin: -3.744e-01  cgtest:  9.280e-01  t[s]:   1165.73
LCAOMinimize: 	Predicted alpha/alphaT>3.000000, increasing alphaT to 1.326019e-01.
LCAOMinimize: 	Predicted alpha/alphaT>3.000000, increasing alphaT to 3.978058e-01.
	FillingsUpdate:  mu: -0.103251266  nElectrons: 896.500000
LCAOMinimize: Iter:  17  F: -3494.0143807406134329  |grad|_K:  2.148e-03  alpha:  1.341e-01  linmin: -4.158e-01  cgtest:  7.940e-01  t[s]:   1266.78
LCAOMinimize: Encountered beta<0, resetting CG.
	FillingsUpdate:  mu: +0.149245740  nElectrons: 896.500000
LCAOMinimize: Iter:  18  F: -3494.7614133303745803  |grad|_K:  2.133e-03  alpha:  3.055e-01  linmin:  4.479e-01  cgtest: -6.980e-01  t[s]:   1332.13
LCAOMinimize: 	Bad step direction: g.d > 0.
LCAOMinimize: 	Undoing step.
LCAOMinimize: 	Step failed: resetting search direction.
	FillingsUpdate:  mu: +0.149245740  nElectrons: 896.500000
LCAOMinimize: Iter:  19  F: -3494.7614133303745803  |grad|_K:  2.133e-03  alpha:  0.000e+00
	FillingsUpdate:  mu: -0.001684315  nElectrons: 896.500000
LCAOMinimize: Iter:  20  F: -3495.5370682327775285  |grad|_K:  6.436e-04  alpha:  1.550e-01  linmin:  1.059e-01  cgtest: -3.505e-01  t[s]:   1443.09
	FillingsUpdate:  mu: +0.012734224  nElectrons: 896.500000
LCAOMinimize: Iter:  21  F: -3495.5702957156699995  |grad|_K:  3.003e-04  alpha:  7.479e-02  linmin:  1.279e-02  cgtest:  3.226e-01  t[s]:   1506.99
	FillingsUpdate:  mu: +0.032551201  nElectrons: 896.500000
LCAOMinimize: Iter:  22  F: -3495.5856808621315395  |grad|_K:  1.722e-04  alpha:  1.270e-01  linmin:  5.894e-03  cgtest: -2.606e-02  t[s]:   1571.10
	FillingsUpdate:  mu: +0.037102424  nElectrons: 896.500000
LCAOMinimize: Iter:  23  F: -3495.5931765387917949  |grad|_K:  1.490e-04  alpha:  1.902e-01  linmin:  6.207e-03  cgtest:  2.998e-02  t[s]:   1632.10
	FillingsUpdate:  mu: +0.033740967  nElectrons: 896.500000
LCAOMinimize: Iter:  24  F: -3495.5972918345587459  |grad|_K:  1.198e-04  alpha:  1.390e-01  linmin:  4.722e-04  cgtest:  4.285e-02  t[s]:   1695.99
	FillingsUpdate:  mu: +0.032426978  nElectrons: 896.500000
LCAOMinimize: Iter:  25  F: -3495.6012029502235237  |grad|_K:  4.207e-05  alpha:  2.013e-01  linmin:  1.730e-03  cgtest: -7.046e-02  t[s]:   1759.75
	FillingsUpdate:  mu: +0.034264459  nElectrons: 896.500000
LCAOMinimize: Iter:  26  F: -3495.6014227464952455  |grad|_K:  1.904e-05  alpha:  9.184e-02  linmin:  6.960e-05  cgtest:  1.010e-02  t[s]:   1823.74
	FillingsUpdate:  mu: +0.035343578  nElectrons: 896.500000
LCAOMinimize: Iter:  27  F: -3495.6015042141384583  |grad|_K:  1.668e-05  alpha:  1.656e-01  linmin:  3.981e-04  cgtest: -1.271e-03  t[s]:   1887.84
	FillingsUpdate:  mu: +0.035227155  nElectrons: 896.500000
LCAOMinimize: Iter:  28  F: -3495.6015601334620442  |grad|_K:  9.202e-06  alpha:  1.483e-01  linmin:  2.547e-04  cgtest:  4.495e-03  t[s]:   1951.50
	FillingsUpdate:  mu: +0.034788145  nElectrons: 896.500000
LCAOMinimize: Iter:  29  F: -3495.6015828772819987  |grad|_K:  6.212e-06  alpha:  1.979e-01  linmin:  1.470e-05  cgtest:  4.677e-04  t[s]:   2015.67
	FillingsUpdate:  mu: +0.034898753  nElectrons: 896.500000
LCAOMinimize: Iter:  30  F: -3495.6015876296864917  |grad|_K:  1.880e-06  alpha:  9.069e-02  linmin: -2.362e-06  cgtest: -1.035e-03  t[s]:   2079.43
LCAOMinimize: None of the convergence criteria satisfied after 30 iterations.
----- createFluidSolver() ----- (Fluid-side solver setup)
   Initializing fluid molecule 'H2O'
     Initializing site 'O'
       Electron density: proportional to exp(-r/0.36935)*erfc((r-0.51523)/0.36823) with norm 6.826
       Charge density: gaussian nuclear width 0.478731 with net site charge 0.826
       Polarizability: cuspless exponential with width 0.32 and norm 3.73
       Hard sphere radius: 2.57003 bohrs
       Positions in reference frame:
         [ +0.000000 +0.000000 +0.000000 ]
     Initializing site 'H'
       Electron density: proportional to exp(-r/0.34641)*erfc((r-0)/0.390882) with norm 0.587
       Charge density: gaussian nuclear width 0.377945 with net site charge -0.413
       Polarizability: cuspless exponential with width 0.39 and norm 3.3
       Positions in reference frame:
         [ +0.000000 -1.441945 +1.122523 ]
         [ +0.000000 +1.441945 +1.122523 ]
     Net charge: 0   dipole magnitude: 0.927204
     Initializing spherical shell mfKernel with radius 2.61727 Bohr
     deltaS corrections:
       site 'O': -7.54299
       site 'H': -6.83917
   Initializing fluid molecule 'Na+'
     Initializing site 'Na'
       Electron density: proportional to exp(-r/0.19682)*erfc((r-0.71491)/0.41314) with norm 8.1383
       Charge density: gaussian nuclear width 0.365347 with net site charge -1
       Hard sphere radius: 1.86327 bohrs
       Positions in reference frame:
         [ +0.000000 +0.000000 +0.000000 ]
     Net charge: -1   dipole magnitude: 0
     Initializing gaussian mfKernel with width: 1.55004 Bohr
     deltaS corrections:
       site 'Na': -22.3555
   Initializing fluid molecule 'F-'
     Initializing site 'F'
       Electron density: proportional to exp(-r/0.38886)*erfc((r-0)/0.438782) with norm 8
       Charge density: gaussian nuclear width 0.374796 with net site charge 1
       Hard sphere radius: 2.39995 bohrs
       Positions in reference frame:
         [ +0.000000 +0.000000 +0.000000 ]
     Net charge: 1   dipole magnitude: 0
     Initializing gaussian mfKernel with width: 1.59012 Bohr
     deltaS corrections:
       site 'F': -9.04335

Correction to mu due to finite nuclear width = -0.0239459
   Cavity determined by nc: 0.00142 and sigma: 0.707107
   Nonlocal vdW cavity from gaussian model electron density with norm = 8 and sigma = 0.993594 bohr
   Charge asymmetry in cavity with sensitivity pCavity = 36.5 e-bohr/Eh
   Electrostatic cavity expanded by eta = 1.46 bohrs
   Weighted density cavitation model constrained by Nbulk: 0.0049383 bohr^-3, Pvap: 3.14029 kPa, Rvdw: 2.61727 bohr and sigmaBulk: 4.62e-05 Eh/bohr^2 at T: 298 K.
   Weighted density dispersion model using vdW pair potentials with single solvent site with sqrtC6eff: 0.77 SI.


---- Citations for features of the code used in this run ----

   Software package:
      R. Sundararaman, K. Letchworth-Weaver, K.A. Schwarz, D. Gunceler, Y. Ozhabes and T.A. Arias, 'JDFTx: software for joint density-functional theory', SoftwareX 6, 278 (2017)

   gga-PBE exchange-correlation functional:
      J.P. Perdew, K. Burke and M. Ernzerhof, Phys. Rev. Lett. 77, 3865 (1996)

   Pseudopotentials:
      KF Garrity, JW Bennett, KM Rabe and D Vanderbilt, Comput. Mater. Sci. 81, 446 (2014)

   Truncated Coulomb potentials:
      R. Sundararaman and T.A. Arias, Phys. Rev. B 87, 165122 (2013)

   Van der Waals correction pair-potentials:
      S. Grimme, J. Comput. Chem. 27, 1787 (2006)

   Charge-asymmetric nonlocally-determined local-electric (CANDLE) solvation model:
      R. Sundararaman and W.A. Goddard III, J. Chem. Phys. 142, 064107 (2015)

   Total energy minimization with Auxiliary Hamiltonian:
      C. Freysoldt, S. Boeck, and J. Neugebauer, Phys. Rev. B 79, 241103(R) (2009)

This list may not be complete. Please suggest additional citations or
report any other bugs at https://github.com/shankar1729/jdftx/issues

Initialization completed successfully at t[s]:   2095.54

Fluid solver invoked on fresh (partially random / LCAO) wavefunctions
Running a vacuum solve first:

-------- Initial electronic minimization -----------
	FillingsUpdate:  mu: +0.034898753  nElectrons: 896.500000
ElecMinimize: Iter:   0  F: -3495.601587629700134  |grad|_K:  1.877e-04  alpha:  1.000e+00
	FillingsUpdate:  mu: -0.003327855  nElectrons: 896.500000
	SubspaceRotationAdjust: set factor to 1
ElecMinimize: Iter:   1  F: -3499.609118261981166  |grad|_K:  9.534e-05  alpha:  3.912e-01  linmin:  2.250e-05  t[s]:   2264.60
	FillingsUpdate:  mu: -0.067947946  nElectrons: 896.500000
	SubspaceRotationAdjust: set factor to 0.668
ElecMinimize: Iter:   2  F: -3500.691596683004263  |grad|_K:  7.310e-05  alpha:  4.095e-01  linmin:  3.543e-06  t[s]:   2369.86
	FillingsUpdate:  mu: +0.000073641  nElectrons: 896.500000
	SubspaceRotationAdjust: set factor to 0.487
ElecMinimize: Iter:   3  F: -3500.994578510574684  |grad|_K:  4.816e-05  alpha:  2.035e-01  linmin:  3.465e-05  t[s]:   2475.60
	FillingsUpdate:  mu: -0.014067182  nElectrons: 896.500000
	SubspaceRotationAdjust: set factor to 0.432
ElecMinimize: Iter:   4  F: -3501.161610126627693  |grad|_K:  2.506e-05  alpha:  2.499e-01  linmin: -4.477e-05  t[s]:   2580.80
	FillingsUpdate:  mu: -0.032612122  nElectrons: 896.500000
	SubspaceRotationAdjust: set factor to 0.297
ElecMinimize: Iter:   5  F: -3501.219616915038841  |grad|_K:  2.234e-05  alpha:  3.091e-01  linmin:  6.173e-05  t[s]:   2686.30
	FillingsUpdate:  mu: -0.030515158  nElectrons: 896.500000
	SubspaceRotationAdjust: set factor to 0.445
ElecMinimize: Iter:   6  F: -3501.257146204076435  |grad|_K:  1.043e-05  alpha:  2.605e-01  linmin:  2.324e-05  t[s]:   2792.71
	FillingsUpdate:  mu: -0.019701929  nElectrons: 896.500000
	SubspaceRotationAdjust: set factor to 0.425
ElecMinimize: Iter:   7  F: -3501.270517648741134  |grad|_K:  7.028e-06  alpha:  4.235e-01  linmin:  7.280e-05  t[s]:   2898.04
	FillingsUpdate:  mu: -0.021875279  nElectrons: 896.500000
	SubspaceRotationAdjust: set factor to 0.335
ElecMinimize: Iter:   8  F: -3501.274195745634188  |grad|_K:  5.749e-06  alpha:  2.544e-01  linmin: -7.239e-06  t[s]:   3003.63
	FillingsUpdate:  mu: -0.025084350  nElectrons: 896.500000
	SubspaceRotationAdjust: set factor to 0.288
ElecMinimize: Iter:   9  F: -3501.276741267408852  |grad|_K:  3.266e-06  alpha:  2.622e-01  linmin:  8.680e-06  t[s]:   3109.28
	FillingsUpdate:  mu: -0.023504445  nElectrons: 896.500000
	SubspaceRotationAdjust: set factor to 0.35
ElecMinimize: Iter:  10  F: -3501.277954544997101  |grad|_K:  2.368e-06  alpha:  3.895e-01  linmin:  2.276e-06  t[s]:   3214.75
	FillingsUpdate:  mu: -0.022642242  nElectrons: 896.500000
	SubspaceRotationAdjust: set factor to 0.28
ElecMinimize: Iter:  11  F: -3501.278553824495248  |grad|_K:  1.955e-06  alpha:  3.649e-01  linmin:  1.543e-06  t[s]:   3319.72
	FillingsUpdate:  mu: -0.023083729  nElectrons: 896.500000
	SubspaceRotationAdjust: set factor to 0.291
ElecMinimize: Iter:  12  F: -3501.278873450052288  |grad|_K:  1.009e-06  alpha:  2.855e-01  linmin:  4.315e-07  t[s]:   3424.68
	FillingsUpdate:  mu: -0.023521102  nElectrons: 896.500000
	SubspaceRotationAdjust: set factor to 0.347
ElecMinimize: Iter:  13  F: -3501.279017246592502  |grad|_K:  7.053e-07  alpha:  4.820e-01  linmin: -1.272e-07  t[s]:   3530.13
	FillingsUpdate:  mu: -0.023347077  nElectrons: 896.500000
	SubspaceRotationAdjust: set factor to 0.291
ElecMinimize: Iter:  14  F: -3501.279069656414777  |grad|_K:  5.940e-07  alpha:  3.592e-01  linmin:  4.313e-08  t[s]:   3635.89
	FillingsUpdate:  mu: -0.023251544  nElectrons: 896.500000
	SubspaceRotationAdjust: set factor to 0.256
ElecMinimize: Iter:  15  F: -3501.279105451554642  |grad|_K:  3.772e-07  alpha:  3.459e-01  linmin:  4.292e-07  t[s]:   3741.18
	FillingsUpdate:  mu: -0.023455276  nElectrons: 896.500000
	SubspaceRotationAdjust: set factor to 0.296
ElecMinimize: Iter:  16  F: -3501.279123739054739  |grad|_K:  2.417e-07  alpha:  4.390e-01  linmin:  6.035e-07  t[s]:   3846.95
	FillingsUpdate:  mu: -0.023456915  nElectrons: 896.500000
	SubspaceRotationAdjust: set factor to 0.302
ElecMinimize: Iter:  17  F: -3501.279131022228285  |grad|_K:  1.591e-07  alpha:  4.261e-01  linmin:  1.907e-07  t[s]:   3949.67
	FillingsUpdate:  mu: -0.023420053  nElectrons: 896.500000
	SubspaceRotationAdjust: set factor to 0.241
ElecMinimize: Iter:  18  F: -3501.279133716144315  |grad|_K:  1.253e-07  alpha:  3.632e-01  linmin:  6.054e-08  t[s]:   4055.16
	FillingsUpdate:  mu: -0.023432191  nElectrons: 896.500000
	SubspaceRotationAdjust: set factor to 0.248
ElecMinimize: Iter:  19  F: -3501.279135525517631  |grad|_K:  7.393e-08  alpha:  3.931e-01  linmin:  1.291e-07  t[s]:   4160.40
	FillingsUpdate:  mu: -0.023466764  nElectrons: 896.500000
	SubspaceRotationAdjust: set factor to 0.293
ElecMinimize: Iter:  20  F: -3501.279136295042463  |grad|_K:  5.326e-08  alpha:  4.807e-01  linmin:  1.066e-07  t[s]:   4265.76
	FillingsUpdate:  mu: -0.023464970  nElectrons: 896.500000
	SubspaceRotationAdjust: set factor to 0.284
ElecMinimize: Iter:  21  F: -3501.279136677119368  |grad|_K:  4.036e-08  alpha:  4.599e-01  linmin:  5.269e-08  t[s]:   4371.31
	FillingsUpdate:  mu: -0.023457536  nElectrons: 896.500000
	SubspaceRotationAdjust: set factor to 0.243
ElecMinimize: Iter:  22  F: -3501.279136848859252  |grad|_K:  2.849e-08  alpha:  3.597e-01  linmin:  4.759e-09  t[s]:   4476.87
	FillingsUpdate:  mu: -0.023454385  nElectrons: 896.500000
	SubspaceRotationAdjust: set factor to 0.265
ElecMinimize: Iter:  23  F: -3501.279136956885395  |grad|_K:  1.914e-08  alpha:  4.539e-01  linmin:  4.125e-08  t[s]:   4582.30
	FillingsUpdate:  mu: -0.023452573  nElectrons: 896.500000
	SubspaceRotationAdjust: set factor to 0.303
ElecMinimize: Iter:  24  F: -3501.279137009347323  |grad|_K:  1.374e-08  alpha:  4.907e-01  linmin:  8.472e-08  t[s]:   4688.44
	FillingsUpdate:  mu: -0.023453810  nElectrons: 896.500000
	SubspaceRotationAdjust: set factor to 0.284
ElecMinimize: Iter:  25  F: -3501.279137032953713  |grad|_K:  9.760e-09  alpha:  4.294e-01  linmin:  3.237e-08  t[s]:   4793.65
	FillingsUpdate:  mu: -0.023454362  nElectrons: 896.500000
	SubspaceRotationAdjust: set factor to 0.23
ElecMinimize: Iter:  26  F: -3501.279137043100491  |grad|_K:  7.325e-09  alpha:  3.648e-01  linmin:  1.977e-07  t[s]:   4898.56
	FillingsUpdate:  mu: -0.023453170  nElectrons: 896.500000
	SubspaceRotationAdjust: set factor to 0.244
ElecMinimize: Iter:  27  F: -3501.279137049534711  |grad|_K:  4.246e-09  alpha:  4.223e-01  linmin:  2.321e-07  t[s]:   5004.01
	FillingsUpdate:  mu: -0.023452999  nElectrons: 896.500000
	SubspaceRotationAdjust: set factor to 0.277
ElecMinimize: Iter:  28  F: -3501.279137052187252  |grad|_K:  3.245e-09  alpha:  5.049e-01  linmin:  1.743e-07  t[s]:   5110.32
ElecMinimize: Converged (|Delta F|<1.000000e-08 for 2 iters).
Setting wave functions to eigenvectors of Hamiltonian
Vacuum energy after initial minimize, F = -3501.279137052187252

	Linear fluid (dielectric constant: 78.4, screening length: 5.74355 Bohr) occupying 0.725996 of unit cell:	Completed after 20 iterations at t[s]:   5132.11

-------- Electronic minimization -----------
	Linear fluid (dielectric constant: 78.4, screening length: 5.74355 Bohr) occupying 0.725996 of unit cell:	Completed after 0 iterations at t[s]:   5155.35
	FillingsUpdate:  mu: -0.202293307  nElectrons: 896.500000
ElecMinimize: Iter:   0  F: -3501.355386347136573  |grad|_K:  1.249e-06  alpha:  1.000e+00
	Linear fluid (dielectric constant: 78.4, screening length: 5.74355 Bohr) occupying 0.726112 of unit cell:	Completed after 13 iterations at t[s]:   5242.78
	Linear fluid (dielectric constant: 78.4, screening length: 5.74355 Bohr) occupying 0.726039 of unit cell:	Completed after 12 iterations at t[s]:   5278.71
	FillingsUpdate:  mu: -0.205235000  nElectrons: 896.500000
	SubspaceRotationAdjust: set factor to 0.193
ElecMinimize: Iter:   1  F: -3501.355554785117420  |grad|_K:  5.444e-07  alpha:  3.676e-01  linmin:  4.992e-09  t[s]:   5324.79
	Linear fluid (dielectric constant: 78.4, screening length: 5.74355 Bohr) occupying 0.726083 of unit cell:	Completed after 3 iterations at t[s]:   5361.32
	Linear fluid (dielectric constant: 78.4, screening length: 5.74355 Bohr) occupying 0.726109 of unit cell:	Completed after 2 iterations at t[s]:   5394.09
	FillingsUpdate:  mu: -0.205278927  nElectrons: 896.500000
	SubspaceRotationAdjust: set factor to 0.23
ElecMinimize: Iter:   2  F: -3501.355605765133532  |grad|_K:  3.422e-07  alpha:  5.850e-01  linmin: -2.975e-07  t[s]:   5438.42
	Linear fluid (dielectric constant: 78.4, screening length: 5.74355 Bohr) occupying 0.726162 of unit cell:	Completed after 3 iterations at t[s]:   5475.03
	Linear fluid (dielectric constant: 78.4, screening length: 5.74355 Bohr) occupying 0.726160 of unit cell:	Completed after 0 iterations at t[s]:   5507.47
	FillingsUpdate:  mu: -0.205198690  nElectrons: 896.500000
	SubspaceRotationAdjust: set factor to 0.296
ElecMinimize: Iter:   3  F: -3501.355625277024501  |grad|_K:  2.622e-07  alpha:  5.651e-01  linmin:  1.082e-07  t[s]:   5550.86
	Linear fluid (dielectric constant: 78.4, screening length: 5.74355 Bohr) occupying 0.726203 of unit cell:	Completed after 7 iterations at t[s]:   5587.46
	Linear fluid (dielectric constant: 78.4, screening length: 5.74355 Bohr) occupying 0.726211 of unit cell:	Completed after 1 iterations at t[s]:   5621.41
	FillingsUpdate:  mu: -0.204916703  nElectrons: 896.500000
	SubspaceRotationAdjust: set factor to 0.408
ElecMinimize: Iter:   4  F: -3501.355639064307525  |grad|_K:  1.770e-07  alpha:  6.812e-01  linmin: -9.160e-07  t[s]:   5665.20
	Linear fluid (dielectric constant: 78.4, screening length: 5.74355 Bohr) occupying 0.726241 of unit cell:	Completed after 3 iterations at t[s]:   5701.45
	Linear fluid (dielectric constant: 78.4, screening length: 5.74355 Bohr) occupying 0.726243 of unit cell:	Completed after 0 iterations at t[s]:   5733.81
	FillingsUpdate:  mu: -0.204934678  nElectrons: 896.500000
	SubspaceRotationAdjust: set factor to 0.469
ElecMinimize: Iter:   5  F: -3501.355645859606739  |grad|_K:  1.359e-07  alpha:  7.123e-01  linmin: -2.786e-07  t[s]:   5777.39
	Linear fluid (dielectric constant: 78.4, screening length: 5.74355 Bohr) occupying 0.726265 of unit cell:	Completed after 7 iterations at t[s]:   5813.94
	Linear fluid (dielectric constant: 78.4, screening length: 5.74355 Bohr) occupying 0.726258 of unit cell:	Completed after 2 iterations at t[s]:   5847.47
	FillingsUpdate:  mu: -0.204708025  nElectrons: 896.500000
	SubspaceRotationAdjust: set factor to 0.436
ElecMinimize: Iter:   6  F: -3501.355648540451966  |grad|_K:  9.333e-08  alpha:  4.913e-01  linmin:  5.684e-08  t[s]:   5891.73
	Linear fluid (dielectric constant: 78.4, screening length: 5.74355 Bohr) occupying 0.726264 of unit cell:	Completed after 2 iterations at t[s]:   5927.70
	Linear fluid (dielectric constant: 78.4, screening length: 5.74355 Bohr) occupying 0.726264 of unit cell:	Completed after 0 iterations at t[s]:   5959.99
	FillingsUpdate:  mu: -0.204745064  nElectrons: 896.500000
	SubspaceRotationAdjust: set factor to 0.387
ElecMinimize: Iter:   7  F: -3501.355649775703569  |grad|_K:  5.175e-08  alpha:  4.858e-01  linmin: -2.653e-07  t[s]:   6003.64
	Linear fluid (dielectric constant: 78.4, screening length: 5.74355 Bohr) occupying 0.726264 of unit cell:	Completed after 2 iterations at t[s]:   6039.64
	Linear fluid (dielectric constant: 78.4, screening length: 5.74355 Bohr) occupying 0.726264 of unit cell:	Completed after 0 iterations at t[s]:   6072.45
	FillingsUpdate:  mu: -0.204753228  nElectrons: 896.500000
	SubspaceRotationAdjust: set factor to 0.433
ElecMinimize: Iter:   8  F: -3501.355650151795544  |grad|_K:  3.015e-08  alpha:  4.737e-01  linmin: -1.117e-06  t[s]:   6115.85
	Linear fluid (dielectric constant: 78.4, screening length: 5.74355 Bohr) occupying 0.726262 of unit cell:	Completed after 0 iterations at t[s]:   6151.46
	Linear fluid (dielectric constant: 78.4, screening length: 5.74355 Bohr) occupying 0.726261 of unit cell:	Completed after 0 iterations at t[s]:   6182.01
	FillingsUpdate:  mu: -0.204751280  nElectrons: 896.500000
	SubspaceRotationAdjust: set factor to 0.503
ElecMinimize: Iter:   9  F: -3501.355650308973054  |grad|_K:  1.861e-08  alpha:  6.164e-01  linmin:  1.136e-06  t[s]:   6223.88
	Linear fluid (dielectric constant: 78.4, screening length: 5.74355 Bohr) occupying 0.726259 of unit cell:	Completed after 2 iterations at t[s]:   6259.92
	Linear fluid (dielectric constant: 78.4, screening length: 5.74355 Bohr) occupying 0.726260 of unit cell:	Completed after 0 iterations at t[s]:   6291.96
ElecMinimize: 	Step increased F by 1.287481e-08, reducing alpha to 2.508060e-02.
	Linear fluid (dielectric constant: 78.4, screening length: 5.74355 Bohr) occupying 0.726261 of unit cell:	Completed after 0 iterations at t[s]:   6362.08
ElecMinimize: 	Step increased F by 2.929573e-08, reducing alpha to 2.508060e-03.
	Linear fluid (dielectric constant: 78.4, screening length: 5.74355 Bohr) occupying 0.726261 of unit cell:	Completed after 0 iterations at t[s]:   6431.94
ElecMinimize: 	Step increased F by 3.206605e-08, reducing alpha to 2.508060e-04.
ElecMinimize: 	Step failed to reduce F after 3 attempts. Quitting step.
ElecMinimize: 	Undoing step.
	Linear fluid (dielectric constant: 78.4, screening length: 5.74355 Bohr) occupying 0.726261 of unit cell:	Completed after 0 iterations at t[s]:   6502.00
ElecMinimize: 	Step failed: resetting search direction.
	FillingsUpdate:  mu: -0.204746143  nElectrons: 896.500000
	SubspaceRotationAdjust: set factor to 0.509
ElecMinimize: Iter:  10  F: -3501.355650276891538  |grad|_K:  3.043e-08  alpha:  2.508e-04
	Linear fluid (dielectric constant: 78.4, screening length: 5.74355 Bohr) occupying 0.726260 of unit cell:	Completed after 2 iterations at t[s]:   6581.56
	Linear fluid (dielectric constant: 78.4, screening length: 5.74355 Bohr) occupying 0.726261 of unit cell:	Completed after 1 iterations at t[s]:   6613.91
	FillingsUpdate:  mu: -0.204780737  nElectrons: 896.500000
	SubspaceRotationAdjust: set factor to 0.334
ElecMinimize: Iter:  11  F: -3501.355650345549293  |grad|_K:  2.268e-08  alpha:  2.582e-01  linmin:  4.220e-05  t[s]:   6657.93
	Linear fluid (dielectric constant: 78.4, screening length: 5.74355 Bohr) occupying 0.726260 of unit cell:	Completed after 0 iterations at t[s]:   6693.76
	Linear fluid (dielectric constant: 78.4, screening length: 5.74355 Bohr) occupying 0.726260 of unit cell:	Completed after 0 iterations at t[s]:   6725.46
	FillingsUpdate:  mu: -0.204780681  nElectrons: 896.500000
	SubspaceRotationAdjust: set factor to 0.345
ElecMinimize: Iter:  12  F: -3501.355650384067758  |grad|_K:  1.767e-08  alpha:  3.267e-01  linmin: -1.530e-05  t[s]:   6769.12
	Linear fluid (dielectric constant: 78.4, screening length: 5.74355 Bohr) occupying 0.726259 of unit cell:	Completed after 2 iterations at t[s]:   6805.15
	Linear fluid (dielectric constant: 78.4, screening length: 5.74355 Bohr) occupying 0.726259 of unit cell:	Completed after 0 iterations at t[s]:   6837.38
ElecMinimize: 	Step increased F by 1.432363e-08, reducing alpha to 9.681522e-03.
	Linear fluid (dielectric constant: 78.4, screening length: 5.74355 Bohr) occupying 0.726259 of unit cell:	Completed after 0 iterations at t[s]:   6907.39
ElecMinimize: 	Step increased F by 3.055447e-09, reducing alpha to 9.681522e-04.
	Linear fluid (dielectric constant: 78.4, screening length: 5.74355 Bohr) occupying 0.726260 of unit cell:	Completed after 0 iterations at t[s]:   6977.49
ElecMinimize: 	Step increased F by 2.067281e-09, reducing alpha to 9.681522e-05.
ElecMinimize: 	Step failed to reduce F after 3 attempts. Quitting step.
ElecMinimize: 	Undoing step.
	Linear fluid (dielectric constant: 78.4, screening length: 5.74355 Bohr) occupying 0.726260 of unit cell:	Completed after 0 iterations at t[s]:   7047.74
ElecMinimize: 	Step failed: resetting search direction.
	FillingsUpdate:  mu: -0.204751571  nElectrons: 896.500000
	SubspaceRotationAdjust: set factor to 0.247
ElecMinimize: Iter:  13  F: -3501.355650382028671  |grad|_K:  1.985e-08  alpha:  9.682e-05
	Linear fluid (dielectric constant: 78.4, screening length: 5.74355 Bohr) occupying 0.726259 of unit cell:	Completed after 3 iterations at t[s]:   7127.72
	Linear fluid (dielectric constant: 78.4, screening length: 5.74355 Bohr) occupying 0.726259 of unit cell:	Completed after 0 iterations at t[s]:   7160.19
ElecMinimize: 	Step increased F by 1.336002e-08, reducing alpha to 1.066292e-02.
	Linear fluid (dielectric constant: 78.4, screening length: 5.74355 Bohr) occupying 0.726259 of unit cell:	Completed after 0 iterations at t[s]:   7230.12
ElecMinimize: 	Step increased F by 5.268248e-09, reducing alpha to 1.066292e-03.
	Linear fluid (dielectric constant: 78.4, screening length: 5.74355 Bohr) occupying 0.726260 of unit cell:	Completed after 0 iterations at t[s]:   7299.99
ElecMinimize: 	Step increased F by 4.483809e-09, reducing alpha to 1.066292e-04.
ElecMinimize: 	Step failed to reduce F after 3 attempts. Quitting step.
ElecMinimize: 	Undoing step.
	Linear fluid (dielectric constant: 78.4, screening length: 5.74355 Bohr) occupying 0.726260 of unit cell:	Completed after 0 iterations at t[s]:   7370.12
ElecMinimize: 	Step failed along negative gradient direction.
ElecMinimize: Probably at roundoff error limit. (Stopping)
Setting wave functions to eigenvectors of Hamiltonian
Single-point solvation energy estimate, DeltaF = -0.076513325300766

# Ionic positions in lattice coordinates:
ion C   0.167454248459894   0.083932301100728   0.557295694344403 1
ion C   0.084168255733299   0.167283603018563   0.442712607455854 1
ion C   0.417454248459894   0.083932301100728   0.557295694344403 1
ion C   0.334168255733299   0.167283603018563   0.442712607455854 1
ion C   0.667454248459894   0.083932301100728   0.557295694344403 1
ion C   0.584168255733299   0.167283603018563   0.442712607455854 1
ion C   0.917454248459894   0.083932301100728   0.557295694344403 1
ion C   0.834168255733299   0.167283603018563   0.442712607455854 1
ion C   0.167454248459894   0.333932301100728   0.557295694344403 1
ion C   0.084168255733299   0.417283603018563   0.442712607455854 1
ion C   0.417454248459894   0.333932301100728   0.557295694344403 1
ion C   0.334168255733299   0.417283603018563   0.442712607455854 1
ion C   0.667454248459894   0.333932301100728   0.557295694344403 1
ion C   0.584168255733299   0.417283603018563   0.442712607455854 1
ion C   0.917454248459894   0.333932301100728   0.557295694344403 1
ion C   0.834168255733299   0.417283603018563   0.442712607455854 1
ion C   0.167454248459894   0.583932301100728   0.557295694344403 1
ion C   0.084168255733299   0.667283603018563   0.442712607455854 1
ion C   0.417454248459894   0.583932301100728   0.557295694344403 1
ion C   0.334168255733299   0.667283603018563   0.442712607455854 1
ion C   0.667454248459894   0.583932301100728   0.557295694344403 1
ion C   0.584168255733299   0.667283603018563   0.442712607455854 1
ion C   0.917454248459894   0.583932301100728   0.557295694344403 1
ion C   0.834168255733299   0.667283603018563   0.442712607455854 1
ion C   0.167454248459894   0.833932301100728   0.557295694344403 1
ion C   0.084168255733299   0.917283603018563   0.442712607455854 1
ion C   0.417454248459894   0.833932301100728   0.557295694344403 1
ion C   0.334168255733299   0.917283603018563   0.442712607455854 1
ion C   0.667454248459894   0.833932301100728   0.557295694344403 1
ion C   0.584168255733299   0.917283603018563   0.442712607455854 1
ion C   0.917454248459894   0.833932301100728   0.557295694344403 1
ion C   0.834168255733299   0.917283603018563   0.442712607455854 1
ion Ti   0.000707133590249   0.000528530881105   0.500005673079691 1
ion Ti   0.084056284511458   0.167207045170162   0.617113083023031 1
ion Ti   0.167466284317293   0.083935586185678   0.382892326537440 1
ion Ti   0.250707133590249   0.000528530881105   0.500005673079691 1
ion Ti   0.334056284511458   0.167207045170162   0.617113083023031 1
ion Ti   0.417466284317293   0.083935586185678   0.382892326537440 1
ion Ti   0.500707133590249   0.000528530881105   0.500005673079691 1
ion Ti   0.584056284511458   0.167207045170162   0.617113083023031 1
ion Ti   0.667466284317293   0.083935586185678   0.382892326537440 1
ion Ti   0.750707133590249   0.000528530881105   0.500005673079691 1
ion Ti   0.834056284511458   0.167207045170162   0.617113083023031 1
ion Ti   0.917466284317293   0.083935586185678   0.382892326537440 1
ion Ti   0.000707133590249   0.250528530881105   0.500005673079691 1
ion Ti   0.084056284511458   0.417207045170162   0.617113083023031 1
ion Ti   0.167466284317293   0.333935586185678   0.382892326537440 1
ion Ti   0.250707133590249   0.250528530881105   0.500005673079691 1
ion Ti   0.334056284511458   0.417207045170162   0.617113083023031 1
ion Ti   0.417466284317293   0.333935586185678   0.382892326537440 1
ion Ti   0.500707133590249   0.250528530881105   0.500005673079691 1
ion Ti   0.584056284511458   0.417207045170162   0.617113083023031 1
ion Ti   0.667466284317293   0.333935586185678   0.382892326537440 1
ion Ti   0.750707133590249   0.250528530881105   0.500005673079691 1
ion Ti   0.834056284511458   0.417207045170162   0.617113083023031 1
ion Ti   0.917466284317293   0.333935586185678   0.382892326537440 1
ion Ti   0.000707133590249   0.500528530881105   0.500005673079691 1
ion Ti   0.084056284511458   0.667207045170162   0.617113083023031 1
ion Ti   0.167466284317293   0.583935586185678   0.382892326537440 1
ion Ti   0.250707133590249   0.500528530881105   0.500005673079691 1
ion Ti   0.334056284511458   0.667207045170162   0.617113083023031 1
ion Ti   0.417466284317293   0.583935586185678   0.382892326537440 1
ion Ti   0.500707133590249   0.500528530881105   0.500005673079691 1
ion Ti   0.584056284511458   0.667207045170162   0.617113083023031 1
ion Ti   0.667466284317293   0.583935586185678   0.382892326537440 1
ion Ti   0.750707133590249   0.500528530881105   0.500005673079691 1
ion Ti   0.834056284511458   0.667207045170162   0.617113083023031 1
ion Ti   0.917466284317293   0.583935586185678   0.382892326537440 1
ion Ti   0.000707133590249   0.750528530881105   0.500005673079691 1
ion Ti   0.084056284511458   0.917207045170162   0.617113083023031 1
ion Ti   0.167466284317293   0.833935586185678   0.382892326537440 1
ion Ti   0.250707133590249   0.750528530881105   0.500005673079691 1
ion Ti   0.334056284511458   0.917207045170162   0.617113083023031 1
ion Ti   0.417466284317293   0.833935586185678   0.382892326537440 1
ion Ti   0.500707133590249   0.750528530881105   0.500005673079691 1
ion Ti   0.584056284511458   0.917207045170162   0.617113083023031 1
ion Ti   0.667466284317293   0.833935586185678   0.382892326537440 1
ion Ti   0.750707133590249   0.750528530881105   0.500005673079691 1
ion Ti   0.834056284511458   0.917207045170162   0.617113083023031 1
ion Ti   0.917466284317293   0.833935586185678   0.382892326537440 1
ion O   0.000765137994074   0.000604888857194   0.659136780199781 1
ion O   0.000942736956232   0.000667975036571   0.340873800359799 1
ion O   0.250765137994074   0.000604888857194   0.659136780199781 1
ion O   0.250942736956232   0.000667975036571   0.340873800359799 1
ion O   0.500765137994074   0.000604888857194   0.659136780199781 1
ion O   0.500942736956232   0.000667975036571   0.340873800359799 1
ion O   0.750765137994074   0.000604888857194   0.659136780199781 1
ion O   0.750942736956232   0.000667975036571   0.340873800359799 1
ion O   0.000765137994074   0.250604888857194   0.659136780199781 1
ion O   0.000942736956232   0.250667975036571   0.340873800359799 1
ion O   0.250765137994074   0.250604888857194   0.659136780199781 1
ion O   0.250942736956232   0.250667975036571   0.340873800359799 1
ion O   0.500765137994074   0.250604888857194   0.659136780199781 1
ion O   0.500942736956232   0.250667975036571   0.340873800359799 1
ion O   0.750765137994074   0.250604888857194   0.659136780199781 1
ion O   0.750942736956232   0.250667975036571   0.340873800359799 1
ion O   0.000765137994074   0.500604888857194   0.659136780199781 1
ion O   0.000942736956232   0.500667975036571   0.340873800359799 1
ion O   0.250765137994074   0.500604888857194   0.659136780199781 1
ion O   0.250942736956232   0.500667975036571   0.340873800359799 1
ion O   0.500765137994074   0.500604888857194   0.659136780199781 1
ion O   0.500942736956232   0.500667975036571   0.340873800359799 1
ion O   0.750765137994074   0.500604888857194   0.659136780199781 1
ion O   0.750942736956232   0.500667975036571   0.340873800359799 1
ion O   0.000765137994074   0.750604888857194   0.659136780199781 1
ion O   0.000942736956232   0.750667975036571   0.340873800359799 1
ion O   0.250765137994074   0.750604888857194   0.659136780199781 1
ion O   0.250942736956232   0.750667975036571   0.340873800359799 1
ion O   0.500765137994074   0.750604888857194   0.659136780199781 1
ion O   0.500942736956232   0.750667975036571   0.340873800359799 1
ion O   0.750765137994074   0.750604888857194   0.659136780199781 1
ion O   0.750942736956232   0.750667975036571   0.340873800359799 1


# Forces in Lattice coordinates:
force C  -0.001207834646554  -0.000573413338808   0.035949389005587 1
force C  -0.000932478175507  -0.000490975465669  -0.035922583517105 1
force C  -0.001207834646554  -0.000573413338808   0.035949389005643 1
force C  -0.000932478175507  -0.000490975465669  -0.035922583517105 1
force C  -0.001207834646554  -0.000573413338808   0.035949389005700 1
force C  -0.000932478175507  -0.000490975465669  -0.035922583517105 1
force C  -0.001207834646554  -0.000573413338808   0.035949389005700 1
force C  -0.000932478175507  -0.000490975465669  -0.035922583517048 1
force C  -0.001207834646554  -0.000573413338808   0.035949389005757 1
force C  -0.000932478175507  -0.000490975465669  -0.035922583516935 1
force C  -0.001207834646554  -0.000573413338808   0.035949389005814 1
force C  -0.000932478175507  -0.000490975465669  -0.035922583516935 1
force C  -0.001207834646554  -0.000573413338808   0.035949389005757 1
force C  -0.000932478175507  -0.000490975465669  -0.035922583517048 1
force C  -0.001207834646554  -0.000573413338808   0.035949389005757 1
force C  -0.000932478175507  -0.000490975465669  -0.035922583516935 1
force C  -0.001207834646554  -0.000573413338808   0.035949389005700 1
force C  -0.000932478175507  -0.000490975465669  -0.035922583516878 1
force C  -0.001207834646554  -0.000573413338808   0.035949389005643 1
force C  -0.000932478175507  -0.000490975465669  -0.035922583516878 1
force C  -0.001207834646554  -0.000573413338808   0.035949389005700 1
force C  -0.000932478175507  -0.000490975465669  -0.035922583516935 1
force C  -0.001207834646554  -0.000573413338808   0.035949389005757 1
force C  -0.000932478175507  -0.000490975465669  -0.035922583516878 1
force C  -0.001207834646554  -0.000573413338808   0.035949389005643 1
force C  -0.000932478175507  -0.000490975465669  -0.035922583516878 1
force C  -0.001207834646554  -0.000573413338808   0.035949389005643 1
force C  -0.000932478175507  -0.000490975465669  -0.035922583516992 1
force C  -0.001207834646554  -0.000573413338808   0.035949389005587 1
force C  -0.000932478175507  -0.000490975465669  -0.035922583516878 1
force C  -0.001207834646554  -0.000573413338808   0.035949389005587 1
force C  -0.000932478175507  -0.000490975465669  -0.035922583516992 1
force Ti   0.000246586006623   0.000437481504551  -0.000161513958596 1
force Ti  -0.001215122511242   0.000288574222390  -0.132473857931565 1
force Ti   0.001137577835756  -0.000377750487050   0.133573249120277 1
force Ti   0.000246586006623   0.000437481504551  -0.000161513958596 1
force Ti  -0.001215122511242   0.000288574222390  -0.132473857932019 1
force Ti   0.001137577835756  -0.000377750487050   0.133573249119823 1
force Ti   0.000246586006623   0.000437481504551  -0.000161513958596 1
force Ti  -0.001215122511242   0.000288574222390  -0.132473857932019 1
force Ti   0.001137577835756  -0.000377750487050   0.133573249119368 1
force Ti   0.000246586006623   0.000437481504551  -0.000161513958596 1
force Ti  -0.001215122511242   0.000288574222390  -0.132473857932019 1
force Ti   0.001137577835756  -0.000377750487050   0.133573249119368 1
force Ti   0.000246586006623   0.000437481504551  -0.000161513958596 1
force Ti  -0.001215122511242   0.000288574222390  -0.132473857932474 1
force Ti   0.001137577835756  -0.000377750487050   0.133573249120732 1
force Ti   0.000246586006623   0.000437481504551  -0.000161513958596 1
force Ti  -0.001215122511242   0.000288574222390  -0.132473857932929 1
force Ti   0.001137577835756  -0.000377750487050   0.133573249120732 1
force Ti   0.000246586006623   0.000437481504551  -0.000161513958596 1
force Ti  -0.001215122511242   0.000288574222390  -0.132473857932474 1
force Ti   0.001137577835756  -0.000377750487050   0.133573249120732 1
force Ti   0.000246586006623   0.000437481504551  -0.000161513958596 1
force Ti  -0.001215122511242   0.000288574222390  -0.132473857932929 1
force Ti   0.001137577835756  -0.000377750487050   0.133573249121187 1
force Ti   0.000246586006623   0.000437481504551  -0.000161513958596 1
force Ti  -0.001215122511242   0.000288574222390  -0.132473857931565 1
force Ti   0.001137577835756  -0.000377750487050   0.133573249119368 1
force Ti   0.000246586006623   0.000437481504551  -0.000161513958596 1
force Ti  -0.001215122511242   0.000288574222390  -0.132473857931565 1
force Ti   0.001137577835756  -0.000377750487050   0.133573249119368 1
force Ti   0.000246586006623   0.000437481504551  -0.000161513958596 1
force Ti  -0.001215122511242   0.000288574222390  -0.132473857932019 1
force Ti   0.001137577835756  -0.000377750487050   0.133573249119368 1
force Ti   0.000246586006623   0.000437481504551  -0.000161513958596 1
force Ti  -0.001215122511242   0.000288574222390  -0.132473857932019 1
force Ti   0.001137577835756  -0.000377750487050   0.133573249119368 1
force Ti   0.000246586006623   0.000437481504551  -0.000161513958596 1
force Ti  -0.001215122511242   0.000288574222390  -0.132473857932019 1
force Ti   0.001137577835756  -0.000377750487050   0.133573249119368 1
force Ti   0.000246586006623   0.000437481504551  -0.000161513958596 1
force Ti  -0.001215122511242   0.000288574222390  -0.132473857932020 1
force Ti   0.001137577835756  -0.000377750487050   0.133573249118913 1
force Ti   0.000246586006623   0.000437481504551  -0.000161513958596 1
force Ti  -0.001215122511242   0.000288574222390  -0.132473857932019 1
force Ti   0.001137577835756  -0.000377750487050   0.133573249119822 1
force Ti   0.000246586006623   0.000437481504551  -0.000161513958596 1
force Ti  -0.001215122511242   0.000288574222390  -0.132473857932019 1
force Ti   0.001137577835756  -0.000377750487050   0.133573249118458 1
force O   0.000793271491428  -0.000853501222210   0.108282259729002 1
force O  -0.003236748481066   0.000187018488272  -0.109600575704096 1
force O   0.000793271491428  -0.000853501222210   0.108282259729002 1
force O  -0.003236748481066   0.000187018488272  -0.109600575704096 1
force O   0.000793271491428  -0.000853501222210   0.108282259729005 1
force O  -0.003236748481066   0.000187018488272  -0.109600575704096 1
force O   0.000793271491428  -0.000853501222210   0.108282259728547 1
force O  -0.003236748481066   0.000187018488272  -0.109600575704096 1
force O   0.000793271491428  -0.000853501222210   0.108282259728547 1
force O  -0.003236748481066   0.000187018488272  -0.109600575704089 1
force O   0.000793271491428  -0.000853501222210   0.108282259729002 1
force O  -0.003236748481066   0.000187018488272  -0.109600575703638 1
force O   0.000793271491428  -0.000853501222210   0.108282259729002 1
force O  -0.003236748481066   0.000187018488272  -0.109600575704096 1
force O   0.000793271491428  -0.000853501222210   0.108282259729002 1
force O  -0.003236748481066   0.000187018488272  -0.109600575704093 1
force O   0.000793271491428  -0.000853501222210   0.108282259728547 1
force O  -0.003236748481066   0.000187018488272  -0.109600575703183 1
force O   0.000793271491428  -0.000853501222210   0.108282259728998 1
force O  -0.003236748481066   0.000187018488272  -0.109600575703183 1
force O   0.000793271491428  -0.000853501222210   0.108282259729002 1
force O  -0.003236748481066   0.000187018488272  -0.109600575703183 1
force O   0.000793271491428  -0.000853501222210   0.108282259728547 1
force O  -0.003236748481066   0.000187018488272  -0.109600575703183 1
force O   0.000793271491428  -0.000853501222210   0.108282259729002 1
force O  -0.003236748481066   0.000187018488272  -0.109600575703187 1
force O   0.000793271491428  -0.000853501222210   0.108282259728547 1
force O  -0.003236748481066   0.000187018488272  -0.109600575703638 1
force O   0.000793271491428  -0.000853501222210   0.108282259728547 1
force O  -0.003236748481066   0.000187018488272  -0.109600575703638 1
force O   0.000793271491428  -0.000853501222210   0.108282259728547 1
force O  -0.003236748481066   0.000187018488272  -0.109600575703642 1

# Energy components:
   A_diel =       -0.0648039208557432
   Eewald =    48771.7474531687985291
       EH =    51726.9498788002456422
     Eloc =  -104757.4352091664623003
      Enl =      356.4513985044165452
      Exc =     -608.7714220176380877
 Exc_core =       66.0158453988322691
       KE =      943.8061904364303700
  MuShift =       -0.0119729634454841
-------------------------------------
     Etot =    -3501.3126417596831743
       TS =        0.0430086178047669
-------------------------------------
        F =    -3501.3556503774880184

IonicMinimize: Iter:   0  F: -3501.355650377488018  |grad|_K:  1.305e-03  t[s]:   7441.85

#--- Lowdin population analysis ---
# oxidation-state C -1.124 -1.124 -1.124 -1.124 -1.124 -1.124 -1.124 -1.124 -1.124 -1.124 -1.124 -1.124 -1.124 -1.124 -1.124 -1.124 -1.124 -1.124 -1.124 -1.124 -1.124 -1.124 -1.124 -1.124 -1.124 -1.124 -1.124 -1.124 -1.124 -1.124 -1.124 -1.124
# oxidation-state Ti +1.183 +1.380 +1.380 +1.183 +1.380 +1.380 +1.183 +1.380 +1.380 +1.183 +1.380 +1.380 +1.183 +1.380 +1.380 +1.183 +1.380 +1.380 +1.183 +1.380 +1.380 +1.183 +1.380 +1.380 +1.183 +1.380 +1.380 +1.183 +1.380 +1.380 +1.183 +1.380 +1.380 +1.183 +1.380 +1.380 +1.183 +1.380 +1.380 +1.183 +1.380 +1.380 +1.183 +1.380 +1.380 +1.183 +1.380 +1.380
# oxidation-state O -0.730 -0.730 -0.730 -0.730 -0.730 -0.730 -0.730 -0.730 -0.730 -0.730 -0.730 -0.730 -0.730 -0.730 -0.730 -0.730 -0.730 -0.730 -0.730 -0.730 -0.730 -0.730 -0.730 -0.730 -0.730 -0.730 -0.730 -0.730 -0.730 -0.730 -0.730 -0.730

	Linear fluid (dielectric constant: 78.4, screening length: 5.74355 Bohr) occupying 0.726196 of unit cell:	Completed after 12 iterations at t[s]:   7482.69

-------- Electronic minimization -----------
	Linear fluid (dielectric constant: 78.4, screening length: 5.74355 Bohr) occupying 0.726196 of unit cell:	Completed after 0 iterations at t[s]:   7504.95
	FillingsUpdate:  mu: -0.207182117  nElectrons: 896.500000
ElecMinimize: Iter:   0  F: -3501.355856690995552  |grad|_K:  7.798e-07  alpha:  1.000e+00
	Linear fluid (dielectric constant: 78.4, screening length: 5.74355 Bohr) occupying 0.726211 of unit cell:	Completed after 12 iterations at t[s]:   7593.03
	Linear fluid (dielectric constant: 78.4, screening length: 5.74355 Bohr) occupying 0.726204 of unit cell:	Completed after 12 iterations at t[s]:   7628.86
	FillingsUpdate:  mu: -0.205452502  nElectrons: 896.500000
	SubspaceRotationAdjust: set factor to 0.196
ElecMinimize: Iter:   1  F: -3501.355951425095554  |grad|_K:  5.588e-07  alpha:  5.324e-01  linmin:  2.565e-08  t[s]:   7675.42
	Linear fluid (dielectric constant: 78.4, screening length: 5.74355 Bohr) occupying 0.726211 of unit cell:	Completed after 4 iterations at t[s]:   7711.78
	Linear fluid (dielectric constant: 78.4, screening length: 5.74355 Bohr) occupying 0.726214 of unit cell:	Completed after 3 iterations at t[s]:   7745.33
	FillingsUpdate:  mu: -0.205608442  nElectrons: 896.500000
	SubspaceRotationAdjust: set factor to 0.278
ElecMinimize: Iter:   2  F: -3501.356019315492631  |grad|_K:  4.844e-07  alpha:  7.414e-01  linmin: -3.419e-06  t[s]:   7790.12
	Linear fluid (dielectric constant: 78.4, screening length: 5.74355 Bohr) occupying 0.726223 of unit cell:	Completed after 5 iterations at t[s]:   7826.23
	Linear fluid (dielectric constant: 78.4, screening length: 5.74355 Bohr) occupying 0.726224 of unit cell:	Completed after 1 iterations at t[s]:   7858.79
	FillingsUpdate:  mu: -0.206015510  nElectrons: 896.500000
	SubspaceRotationAdjust: set factor to 0.319
ElecMinimize: Iter:   3  F: -3501.356074081019415  |grad|_K:  4.034e-07  alpha:  7.949e-01  linmin: -4.797e-05  t[s]:   7900.71
	Linear fluid (dielectric constant: 78.4, screening length: 5.74355 Bohr) occupying 0.726232 of unit cell:	Completed after 5 iterations at t[s]:   7935.39
	Linear fluid (dielectric constant: 78.4, screening length: 5.74355 Bohr) occupying 0.726230 of unit cell:	Completed after 3 iterations at t[s]:   7966.67
	FillingsUpdate:  mu: -0.205875952  nElectrons: 896.500000
	SubspaceRotationAdjust: set factor to 0.35
ElecMinimize: Iter:   4  F: -3501.356103672398604  |grad|_K:  2.029e-07  alpha:  6.114e-01  linmin:  1.198e-05  t[s]:   8009.28
	Linear fluid (dielectric constant: 78.4, screening length: 5.74355 Bohr) occupying 0.726231 of unit cell:	Completed after 2 iterations at t[s]:   8043.68
	Linear fluid (dielectric constant: 78.4, screening length: 5.74355 Bohr) occupying 0.726231 of unit cell:	Completed after 0 iterations at t[s]:   8073.95
	FillingsUpdate:  mu: -0.205884155  nElectrons: 896.500000
	SubspaceRotationAdjust: set factor to 0.364
ElecMinimize: Iter:   5  F: -3501.356109840580757  |grad|_K:  1.143e-07  alpha:  5.112e-01  linmin:  2.063e-05  t[s]:   8115.95
	Linear fluid (dielectric constant: 78.4, screening length: 5.74355 Bohr) occupying 0.726230 of unit cell:	Completed after 2 iterations at t[s]:   8150.34
	Linear fluid (dielectric constant: 78.4, screening length: 5.74355 Bohr) occupying 0.726230 of unit cell:	Completed after 0 iterations at t[s]:   8180.69
	FillingsUpdate:  mu: -0.205894782  nElectrons: 896.500000
	SubspaceRotationAdjust: set factor to 0.388
ElecMinimize: Iter:   6  F: -3501.356111348155991  |grad|_K:  5.961e-08  alpha:  4.058e-01  linmin: -1.231e-06  t[s]:   8222.89
	Linear fluid (dielectric constant: 78.4, screening length: 5.74355 Bohr) occupying 0.726230 of unit cell:	Completed after 0 iterations at t[s]:   8257.28
	Linear fluid (dielectric constant: 78.4, screening length: 5.74355 Bohr) occupying 0.726230 of unit cell:	Completed after 1 iterations at t[s]:   8287.22
	FillingsUpdate:  mu: -0.205887276  nElectrons: 896.500000
	SubspaceRotationAdjust: set factor to 0.426
ElecMinimize: Iter:   7  F: -3501.356111911798962  |grad|_K:  3.154e-08  alpha:  5.861e-01  linmin:  1.062e-05  t[s]:   8329.50
	Linear fluid (dielectric constant: 78.4, screening length: 5.74355 Bohr) occupying 0.726230 of unit cell:	Completed after 0 iterations at t[s]:   8363.54
	Linear fluid (dielectric constant: 78.4, screening length: 5.74355 Bohr) occupying 0.726230 of unit cell:	Completed after 0 iterations at t[s]:   8393.19
	FillingsUpdate:  mu: -0.205887469  nElectrons: 896.500000
	SubspaceRotationAdjust: set factor to 0.452
ElecMinimize: Iter:   8  F: -3501.356112060505438  |grad|_K:  2.032e-08  alpha:  5.310e-01  linmin: -5.967e-08  t[s]:   8434.92
	Linear fluid (dielectric constant: 78.4, screening length: 5.74355 Bohr) occupying 0.726230 of unit cell:	Completed after 2 iterations at t[s]:   8469.35
	Linear fluid (dielectric constant: 78.4, screening length: 5.74355 Bohr) occupying 0.726230 of unit cell:	Completed after 0 iterations at t[s]:   8499.86
ElecMinimize: 	Step increased F by 1.464605e-08, reducing alpha to 2.195221e-02.
	Linear fluid (dielectric constant: 78.4, screening length: 5.74355 Bohr) occupying 0.726230 of unit cell:	Completed after 0 iterations at t[s]:   8566.68
ElecMinimize: 	Step increased F by 3.548121e-08, reducing alpha to 2.195221e-03.
	Linear fluid (dielectric constant: 78.4, screening length: 5.74355 Bohr) occupying 0.726230 of unit cell:	Completed after 0 iterations at t[s]:   8633.40
ElecMinimize: 	Step increased F by 3.885816e-08, reducing alpha to 2.195221e-04.
ElecMinimize: 	Step failed to reduce F after 3 attempts. Quitting step.
ElecMinimize: 	Undoing step.
	Linear fluid (dielectric constant: 78.4, screening length: 5.74355 Bohr) occupying 0.726230 of unit cell:	Completed after 0 iterations at t[s]:   8700.10
ElecMinimize: 	Step failed: resetting search direction.
	FillingsUpdate:  mu: -0.205881170  nElectrons: 896.500000
	SubspaceRotationAdjust: set factor to 0.44
ElecMinimize: Iter:   9  F: -3501.356112021640911  |grad|_K:  2.865e-08  alpha:  2.195e-04
	Linear fluid (dielectric constant: 78.4, screening length: 5.74355 Bohr) occupying 0.726230 of unit cell:	Completed after 2 iterations at t[s]:   8776.06
	Linear fluid (dielectric constant: 78.4, screening length: 5.74355 Bohr) occupying 0.726230 of unit cell:	Completed after 0 iterations at t[s]:   8806.42
	FillingsUpdate:  mu: -0.205898219  nElectrons: 896.500000
	SubspaceRotationAdjust: set factor to 0.267
ElecMinimize: Iter:  10  F: -3501.356112090094030  |grad|_K:  2.317e-08  alpha:  2.494e-01  linmin:  8.802e-05  t[s]:   8848.44
	Linear fluid (dielectric constant: 78.4, screening length: 5.74355 Bohr) occupying 0.726230 of unit cell:	Completed after 0 iterations at t[s]:   8882.46
	Linear fluid (dielectric constant: 78.4, screening length: 5.74355 Bohr) occupying 0.726230 of unit cell:	Completed after 0 iterations at t[s]:   8912.07
	FillingsUpdate:  mu: -0.205898252  nElectrons: 896.500000
	SubspaceRotationAdjust: set factor to 0.39
ElecMinimize: Iter:  11  F: -3501.356112127700271  |grad|_K:  2.281e-08  alpha:  4.077e-01  linmin: -1.037e-09  t[s]:   8953.85
	Linear fluid (dielectric constant: 78.4, screening length: 5.74355 Bohr) occupying 0.726230 of unit cell:	Completed after 2 iterations at t[s]:   8988.18
	Linear fluid (dielectric constant: 78.4, screening length: 5.74355 Bohr) occupying 0.726230 of unit cell:	Completed after 0 iterations at t[s]:   9018.57
ElecMinimize: 	Step increased F by 3.685591e-08, reducing alpha to 7.638693e-03.
	Linear fluid (dielectric constant: 78.4, screening length: 5.74355 Bohr) occupying 0.726230 of unit cell:	Completed after 0 iterations at t[s]:   9085.54
ElecMinimize: 	Step increased F by 8.873030e-09, reducing alpha to 7.638693e-04.
	Linear fluid (dielectric constant: 78.4, screening length: 5.74355 Bohr) occupying 0.726230 of unit cell:	Completed after 0 iterations at t[s]:   9152.34
ElecMinimize: 	Step increased F by 6.172741e-09, reducing alpha to 7.638693e-05.
ElecMinimize: 	Step failed to reduce F after 3 attempts. Quitting step.
ElecMinimize: 	Undoing step.
	Linear fluid (dielectric constant: 78.4, screening length: 5.74355 Bohr) occupying 0.726230 of unit cell:	Completed after 0 iterations at t[s]:   9219.03
ElecMinimize: 	Step failed: resetting search direction.
	FillingsUpdate:  mu: -0.205870930  nElectrons: 896.500000
	SubspaceRotationAdjust: set factor to 0.324
ElecMinimize: Iter:  12  F: -3501.356112121600290  |grad|_K:  4.399e-08  alpha:  7.639e-05
	Linear fluid (dielectric constant: 78.4, screening length: 5.74355 Bohr) occupying 0.726230 of unit cell:	Completed after 2 iterations at t[s]:   9295.10
	Linear fluid (dielectric constant: 78.4, screening length: 5.74355 Bohr) occupying 0.726230 of unit cell:	Completed after 3 iterations at t[s]:   9325.96
ElecMinimize: 	Step increased F by 3.828336e-08, reducing alpha to 1.243406e-02.
	Linear fluid (dielectric constant: 78.4, screening length: 5.74355 Bohr) occupying 0.726230 of unit cell:	Completed after 0 iterations at t[s]:   9393.45
ElecMinimize: 	Step increased F by 1.899525e-08, reducing alpha to 1.243406e-03.
	Linear fluid (dielectric constant: 78.4, screening length: 5.74355 Bohr) occupying 0.726230 of unit cell:	Completed after 0 iterations at t[s]:   9460.27
ElecMinimize: 	Step increased F by 1.810304e-08, reducing alpha to 1.243406e-04.
ElecMinimize: 	Step failed to reduce F after 3 attempts. Quitting step.
ElecMinimize: 	Undoing step.
	Linear fluid (dielectric constant: 78.4, screening length: 5.74355 Bohr) occupying 0.726230 of unit cell:	Completed after 0 iterations at t[s]:   9526.91
ElecMinimize: 	Step failed along negative gradient direction.
ElecMinimize: Probably at roundoff error limit. (Stopping)
Setting wave functions to eigenvectors of Hamiltonian

# Ionic positions in lattice coordinates:
ion C   0.167452270542052   0.083930583489989   0.557316538586551 1
ion C   0.084167096222532   0.167282454382710   0.442691837236178 1
ion C   0.417452270542052   0.083930583489989   0.557316538586551 1
ion C   0.334167096222532   0.167282454382710   0.442691837236178 1
ion C   0.667452270542052   0.083930583489989   0.557316538586551 1
ion C   0.584167096222532   0.167282454382710   0.442691837236178 1
ion C   0.917452270542052   0.083930583489989   0.557316538586551 1
ion C   0.834167096222532   0.167282454382710   0.442691837236178 1
ion C   0.167452270542052   0.333930583489989   0.557316538586551 1
ion C   0.084167096222532   0.417282454382710   0.442691837236178 1
ion C   0.417452270542052   0.333930583489989   0.557316538586551 1
ion C   0.334167096222532   0.417282454382710   0.442691837236178 1
ion C   0.667452270542052   0.333930583489989   0.557316538586551 1
ion C   0.584167096222532   0.417282454382710   0.442691837236178 1
ion C   0.917452270542052   0.333930583489989   0.557316538586551 1
ion C   0.834167096222532   0.417282454382710   0.442691837236178 1
ion C   0.167452270542052   0.583930583489989   0.557316538586551 1
ion C   0.084167096222532   0.667282454382710   0.442691837236178 1
ion C   0.417452270542052   0.583930583489989   0.557316538586551 1
ion C   0.334167096222532   0.667282454382710   0.442691837236178 1
ion C   0.667452270542052   0.583930583489989   0.557316538586551 1
ion C   0.584167096222532   0.667282454382710   0.442691837236178 1
ion C   0.917452270542052   0.583930583489989   0.557316538586551 1
ion C   0.834167096222532   0.667282454382710   0.442691837236178 1
ion C   0.167452270542052   0.833930583489989   0.557316538586551 1
ion C   0.084167096222532   0.917282454382710   0.442691837236178 1
ion C   0.417452270542052   0.833930583489989   0.557316538586551 1
ion C   0.334167096222532   0.917282454382710   0.442691837236178 1
ion C   0.667452270542052   0.833930583489989   0.557316538586551 1
ion C   0.584167096222532   0.917282454382710   0.442691837236178 1
ion C   0.917452270542052   0.833930583489989   0.557316538586551 1
ion C   0.834167096222532   0.917282454382710   0.442691837236178 1
ion Ti   0.000710222212593   0.000531306075566   0.500005608812720 1
ion Ti   0.084055401821014   0.167207546283363   0.617036408823233 1
ion Ti   0.167470622722794   0.083937405649616   0.382969695795631 1
ion Ti   0.250710222212593   0.000531306075566   0.500005608812720 1
ion Ti   0.334055401821014   0.167207546283363   0.617036408823233 1
ion Ti   0.417470622722794   0.083937405649616   0.382969695795631 1
ion Ti   0.500710222212593   0.000531306075566   0.500005608812720 1
ion Ti   0.584055401821014   0.167207546283363   0.617036408823233 1
ion Ti   0.667470622722794   0.083937405649616   0.382969695795631 1
ion Ti   0.750710222212593   0.000531306075566   0.500005608812720 1
ion Ti   0.834055401821014   0.167207546283363   0.617036408823233 1
ion Ti   0.917470622722794   0.083937405649616   0.382969695795631 1
ion Ti   0.000710222212593   0.250531306075566   0.500005608812720 1
ion Ti   0.084055401821014   0.417207546283363   0.617036408823233 1
ion Ti   0.167470622722794   0.333937405649616   0.382969695795631 1
ion Ti   0.250710222212593   0.250531306075566   0.500005608812720 1
ion Ti   0.334055401821014   0.417207546283363   0.617036408823233 1
ion Ti   0.417470622722794   0.333937405649616   0.382969695795631 1
ion Ti   0.500710222212593   0.250531306075566   0.500005608812720 1
ion Ti   0.584055401821014   0.417207546283363   0.617036408823233 1
ion Ti   0.667470622722794   0.333937405649616   0.382969695795631 1
ion Ti   0.750710222212593   0.250531306075566   0.500005608812720 1
ion Ti   0.834055401821014   0.417207546283363   0.617036408823233 1
ion Ti   0.917470622722794   0.333937405649616   0.382969695795631 1
ion Ti   0.000710222212593   0.500531306075566   0.500005608812720 1
ion Ti   0.084055401821014   0.667207546283363   0.617036408823233 1
ion Ti   0.167470622722794   0.583937405649616   0.382969695795631 1
ion Ti   0.250710222212593   0.500531306075566   0.500005608812720 1
ion Ti   0.334055401821014   0.667207546283363   0.617036408823233 1
ion Ti   0.417470622722794   0.583937405649616   0.382969695795631 1
ion Ti   0.500710222212593   0.500531306075566   0.500005608812720 1
ion Ti   0.584055401821014   0.667207546283363   0.617036408823233 1
ion Ti   0.667470622722794   0.583937405649616   0.382969695795631 1
ion Ti   0.750710222212593   0.500531306075566   0.500005608812720 1
ion Ti   0.834055401821014   0.667207546283363   0.617036408823233 1
ion Ti   0.917470622722794   0.583937405649616   0.382969695795631 1
ion Ti   0.000710222212593   0.750531306075566   0.500005608812720 1
ion Ti   0.084055401821014   0.917207546283363   0.617036408823233 1
ion Ti   0.167470622722794   0.833937405649616   0.382969695795631 1
ion Ti   0.250710222212593   0.750531306075566   0.500005608812720 1
ion Ti   0.334055401821014   0.917207546283363   0.617036408823233 1
ion Ti   0.417470622722794   0.833937405649616   0.382969695795631 1
ion Ti   0.500710222212593   0.750531306075566   0.500005608812720 1
ion Ti   0.584055401821014   0.917207546283363   0.617036408823233 1
ion Ti   0.667470622722794   0.833937405649616   0.382969695795631 1
ion Ti   0.750710222212593   0.750531306075566   0.500005608812720 1
ion Ti   0.834055401821014   0.917207546283363   0.617036408823233 1
ion Ti   0.917470622722794   0.833937405649616   0.382969695795631 1
ion O   0.000767971407181   0.000605033562083   0.659199505767593 1
ion O   0.000936496634333   0.000665600806675   0.340810369978094 1
[...]
	Linear fluid (dielectric constant: 78.4, screening length: 5.74355 Bohr) occupying 0.726058 of unit cell:	Completed after 0 iterations at t[s]:  15008.65
	FillingsUpdate:  mu: -0.207852314  nElectrons: 896.500000
	SubspaceRotationAdjust: set factor to 0.665
ElecMinimize: Iter:  11  F: -3501.356442171942035  |grad|_K:  9.869e-09  alpha:  2.825e-01  linmin: -1.608e-05  t[s]:  15052.24
	Linear fluid (dielectric constant: 78.4, screening length: 5.74355 Bohr) occupying 0.726058 of unit cell:	Completed after 0 iterations at t[s]:  15088.11
	Linear fluid (dielectric constant: 78.4, screening length: 5.74355 Bohr) occupying 0.726058 of unit cell:	Completed after 0 iterations at t[s]:  15119.80
	FillingsUpdate:  mu: -0.207852301  nElectrons: 896.500000
	SubspaceRotationAdjust: set factor to 0.865
ElecMinimize: Iter:  12  F: -3501.356442186768163  |grad|_K:  7.806e-09  alpha:  3.994e-01  linmin:  2.768e-08  t[s]:  15163.66
	Linear fluid (dielectric constant: 78.4, screening length: 5.74355 Bohr) occupying 0.726059 of unit cell:	Completed after 0 iterations at t[s]:  15199.60
	Linear fluid (dielectric constant: 78.4, screening length: 5.74355 Bohr) occupying 0.726059 of unit cell:	Completed after 0 iterations at t[s]:  15231.52
	FillingsUpdate:  mu: -0.207852309  nElectrons: 896.500000
	SubspaceRotationAdjust: set factor to 1.04
	SubspaceRotationAdjust: resetting CG because factor has changed by 8.45255
	Linear fluid (dielectric constant: 78.4, screening length: 5.74355 Bohr) occupying 0.726059 of unit cell:	Completed after 0 iterations at t[s]:  15291.19
ElecMinimize: 	State modified externally: resetting search direction.
ElecMinimize: Iter:  13  F: -3501.356442193373823  |grad|_K:  6.229e-09  alpha:  3.695e-01
	Linear fluid (dielectric constant: 78.4, screening length: 5.74355 Bohr) occupying 0.726059 of unit cell:	Completed after 0 iterations at t[s]:  15370.46
	Linear fluid (dielectric constant: 78.4, screening length: 5.74355 Bohr) occupying 0.726059 of unit cell:	Completed after 0 iterations at t[s]:  15402.45
	FillingsUpdate:  mu: -0.207852326  nElectrons: 896.500000
	SubspaceRotationAdjust: set factor to 1.4
ElecMinimize: Iter:  14  F: -3501.356442198626155  |grad|_K:  3.537e-09  alpha:  4.622e-01  linmin:  7.745e-07  t[s]:  15445.99
ElecMinimize: Converged (|Delta F|<1.000000e-08 for 2 iters).
Setting wave functions to eigenvectors of Hamiltonian

# Ionic positions in lattice coordinates:
ion C   0.167438991391029   0.083916145672923   0.557341960541078 1
ion C   0.084148468625983   0.167269734890549   0.442667415347099 1
ion C   0.417438991391029   0.083916145672923   0.557341960541078 1
ion C   0.334148468625983   0.167269734890549   0.442667415347099 1
ion C   0.667438991391029   0.083916145672923   0.557341960541078 1
ion C   0.584148468625983   0.167269734890549   0.442667415347099 1
ion C   0.917438991391029   0.083916145672923   0.557341960541078 1
ion C   0.834148468625983   0.167269734890549   0.442667415347099 1
ion C   0.167438991391029   0.333916145672923   0.557341960541078 1
ion C   0.084148468625983   0.417269734890549   0.442667415347099 1
ion C   0.417438991391029   0.333916145672923   0.557341960541078 1
ion C   0.334148468625983   0.417269734890549   0.442667415347099 1
ion C   0.667438991391029   0.333916145672923   0.557341960541078 1
ion C   0.584148468625983   0.417269734890549   0.442667415347099 1
ion C   0.917438991391029   0.333916145672923   0.557341960541078 1
ion C   0.834148468625983   0.417269734890549   0.442667415347099 1
ion C   0.167438991391029   0.583916145672923   0.557341960541078 1
ion C   0.084148468625983   0.667269734890549   0.442667415347099 1
ion C   0.417438991391029   0.583916145672923   0.557341960541078 1
ion C   0.334148468625983   0.667269734890549   0.442667415347099 1
ion C   0.667438991391029   0.583916145672923   0.557341960541078 1
ion C   0.584148468625983   0.667269734890549   0.442667415347099 1
ion C   0.917438991391029   0.583916145672923   0.557341960541078 1
ion C   0.834148468625983   0.667269734890549   0.442667415347099 1
ion C   0.167438991391029   0.833916145672923   0.557341960541078 1
ion C   0.084148468625983   0.917269734890549   0.442667415347099 1
ion C   0.417438991391029   0.833916145672923   0.557341960541078 1
ion C   0.334148468625983   0.917269734890549   0.442667415347099 1
ion C   0.667438991391029   0.833916145672923   0.557341960541078 1
ion C   0.584148468625983   0.917269734890549   0.442667415347099 1
ion C   0.917438991391029   0.833916145672923   0.557341960541078 1
ion C   0.834148468625983   0.917269734890549   0.442667415347099 1
ion Ti   0.000741983425911   0.000559687611278   0.500005758250217 1
ion Ti   0.084049721809247   0.167218194302939   0.616999565200927 1
ion Ti   0.167517514655946   0.083954645553935   0.383007327218889 1
ion Ti   0.250741983425911   0.000559687611278   0.500005758250217 1
ion Ti   0.334049721809247   0.167218194302939   0.616999565200927 1
ion Ti   0.417517514655946   0.083954645553935   0.383007327218889 1
ion Ti   0.500741983425911   0.000559687611278   0.500005758250217 1
ion Ti   0.584049721809247   0.167218194302939   0.616999565200927 1
ion Ti   0.667517514655946   0.083954645553935   0.383007327218889 1
ion Ti   0.750741983425911   0.000559687611278   0.500005758250217 1
ion Ti   0.834049721809247   0.167218194302939   0.616999565200927 1
ion Ti   0.917517514655946   0.083954645553935   0.383007327218889 1
ion Ti   0.000741983425911   0.250559687611278   0.500005758250217 1
ion Ti   0.084049721809247   0.417218194302939   0.616999565200927 1
ion Ti   0.167517514655946   0.333954645553935   0.383007327218889 1
ion Ti   0.250741983425911   0.250559687611278   0.500005758250217 1
ion Ti   0.334049721809247   0.417218194302939   0.616999565200927 1
ion Ti   0.417517514655946   0.333954645553935   0.383007327218889 1
ion Ti   0.500741983425911   0.250559687611278   0.500005758250217 1
ion Ti   0.584049721809247   0.417218194302939   0.616999565200927 1
ion Ti   0.667517514655946   0.333954645553935   0.383007327218889 1
ion Ti   0.750741983425911   0.250559687611278   0.500005758250217 1
ion Ti   0.834049721809247   0.417218194302939   0.616999565200927 1
ion Ti   0.917517514655946   0.333954645553935   0.383007327218889 1
ion Ti   0.000741983425911   0.500559687611278   0.500005758250217 1
ion Ti   0.084049721809247   0.667218194302939   0.616999565200927 1
ion Ti   0.167517514655946   0.583954645553935   0.383007327218889 1
ion Ti   0.250741983425911   0.500559687611278   0.500005758250217 1
ion Ti   0.334049721809247   0.667218194302939   0.616999565200927 1
ion Ti   0.417517514655946   0.583954645553935   0.383007327218889 1
ion Ti   0.500741983425911   0.500559687611278   0.500005758250217 1
ion Ti   0.584049721809247   0.667218194302939   0.616999565200927 1
ion Ti   0.667517514655946   0.583954645553935   0.383007327218889 1
ion Ti   0.750741983425911   0.500559687611278   0.500005758250217 1
ion Ti   0.834049721809247   0.667218194302939   0.616999565200927 1
ion Ti   0.917517514655946   0.583954645553935   0.383007327218889 1
ion Ti   0.000741983425911   0.750559687611278   0.500005758250217 1
ion Ti   0.084049721809247   0.917218194302939   0.616999565200927 1
ion Ti   0.167517514655946   0.833954645553935   0.383007327218889 1
ion Ti   0.250741983425911   0.750559687611278   0.500005758250217 1
ion Ti   0.334049721809247   0.917218194302939   0.616999565200927 1
ion Ti   0.417517514655946   0.833954645553935   0.383007327218889 1
ion Ti   0.500741983425911   0.750559687611278   0.500005758250217 1
ion Ti   0.584049721809247   0.917218194302939   0.616999565200927 1
ion Ti   0.667517514655946   0.833954645553935   0.383007327218889 1
ion Ti   0.750741983425911   0.750559687611278   0.500005758250217 1
ion Ti   0.834049721809247   0.917218194302939   0.616999565200927 1
ion Ti   0.917517514655946   0.833954645553935   0.383007327218889 1
ion O   0.000797035784071   0.000604024778707   0.659443976748809 1
ion O   0.000866365870312   0.000637497439669   0.340563961692979 1
ion O   0.250797035784070   0.000604024778707   0.659443976748809 1
ion O   0.250866365870312   0.000637497439669   0.340563961692979 1
ion O   0.500797035784071   0.000604024778707   0.659443976748809 1
ion O   0.500866365870312   0.000637497439669   0.340563961692979 1
ion O   0.750797035784071   0.000604024778707   0.659443976748809 1
ion O   0.750866365870312   0.000637497439669   0.340563961692979 1
ion O   0.000797035784071   0.250604024778707   0.659443976748809 1
ion O   0.000866365870312   0.250637497439669   0.340563961692979 1
ion O   0.250797035784070   0.250604024778707   0.659443976748809 1
ion O   0.250866365870312   0.250637497439669   0.340563961692979 1
ion O   0.500797035784071   0.250604024778707   0.659443976748809 1
ion O   0.500866365870312   0.250637497439669   0.340563961692979 1
ion O   0.750797035784071   0.250604024778707   0.659443976748809 1
ion O   0.750866365870312   0.250637497439669   0.340563961692979 1
ion O   0.000797035784071   0.500604024778707   0.659443976748809 1
ion O   0.000866365870312   0.500637497439669   0.340563961692979 1
ion O   0.250797035784070   0.500604024778707   0.659443976748809 1
ion O   0.250866365870312   0.500637497439669   0.340563961692979 1
ion O   0.500797035784071   0.500604024778707   0.659443976748809 1
ion O   0.500866365870312   0.500637497439669   0.340563961692979 1
ion O   0.750797035784071   0.500604024778707   0.659443976748809 1
ion O   0.750866365870312   0.500637497439669   0.340563961692979 1
ion O   0.000797035784071   0.750604024778707   0.659443976748809 1
ion O   0.000866365870312   0.750637497439669   0.340563961692979 1
ion O   0.250797035784070   0.750604024778707   0.659443976748809 1
ion O   0.250866365870312   0.750637497439669   0.340563961692979 1
ion O   0.500797035784071   0.750604024778707   0.659443976748809 1
ion O   0.500866365870312   0.750637497439669   0.340563961692979 1
ion O   0.750797035784071   0.750604024778707   0.659443976748809 1
ion O   0.750866365870312   0.750637497439669   0.340563961692979 1


# Forces in Lattice coordinates:
force C  -0.000295804474348  -0.000154875147199   0.009025915834107 1
force C  -0.000811911944069  -0.000073608743261  -0.009334302075928 1
force C  -0.000295804474348  -0.000154875147199   0.009025915834107 1
force C  -0.000811911944069  -0.000073608743261  -0.009334302076042 1
force C  -0.000295804474348  -0.000154875147199   0.009025915834107 1
force C  -0.000811911944069  -0.000073608743261  -0.009334302075985 1
force C  -0.000295804474348  -0.000154875147199   0.009025915833993 1
force C  -0.000811911944069  -0.000073608743261  -0.009334302075928 1
force C  -0.000295804474348  -0.000154875147199   0.009025915834164 1
force C  -0.000811911944069  -0.000073608743261  -0.009334302076098 1
force C  -0.000295804474348  -0.000154875147199   0.009025915834050 1
force C  -0.000811911944069  -0.000073608743261  -0.009334302076155 1
force C  -0.000295804474348  -0.000154875147199   0.009025915834050 1
force C  -0.000811911944069  -0.000073608743261  -0.009334302076098 1
force C  -0.000295804474348  -0.000154875147199   0.009025915834107 1
force C  -0.000811911944069  -0.000073608743261  -0.009334302076155 1
force C  -0.000295804474348  -0.000154875147199   0.009025915833936 1
force C  -0.000811911944069  -0.000073608743261  -0.009334302076098 1
force C  -0.000295804474348  -0.000154875147199   0.009025915833993 1
force C  -0.000811911944069  -0.000073608743261  -0.009334302076155 1
force C  -0.000295804474348  -0.000154875147199   0.009025915833880 1
force C  -0.000811911944069  -0.000073608743261  -0.009334302076098 1
force C  -0.000295804474348  -0.000154875147199   0.009025915833936 1
force C  -0.000811911944069  -0.000073608743261  -0.009334302076155 1
force C  -0.000295804474348  -0.000154875147199   0.009025915834050 1
force C  -0.000811911944069  -0.000073608743261  -0.009334302075928 1
force C  -0.000295804474348  -0.000154875147199   0.009025915834050 1
force C  -0.000811911944069  -0.000073608743261  -0.009334302075928 1
force C  -0.000295804474348  -0.000154875147199   0.009025915833993 1
force C  -0.000811911944069  -0.000073608743261  -0.009334302075985 1
force C  -0.000295804474348  -0.000154875147199   0.009025915834050 1
force C  -0.000811911944069  -0.000073608743261  -0.009334302075928 1
force Ti  -0.001735157192255  -0.000978025461613  -0.000248840982453 1
force Ti   0.000538725883653  -0.001154724585465  -0.006753667985431 1
force Ti  -0.003498236142209   0.000258655821348   0.006840752542445 1
force Ti  -0.001735157192255  -0.000978025461613  -0.000248840982453 1
force Ti   0.000538725883653  -0.001154724585465  -0.006753667985431 1
force Ti  -0.003498236142209   0.000258655821348   0.006840752542899 1
force Ti  -0.001735157192255  -0.000978025461613  -0.000248840982453 1
force Ti   0.000538725883653  -0.001154724585465  -0.006753667985431 1
force Ti  -0.003498236142209   0.000258655821348   0.006840752542899 1
force Ti  -0.001735157192255  -0.000978025461613  -0.000248840982453 1
force Ti   0.000538725883653  -0.001154724585465  -0.006753667985431 1
force Ti  -0.003498236142209   0.000258655821348   0.006840752542445 1
force Ti  -0.001735157192255  -0.000978025461613  -0.000248840982453 1
force Ti   0.000538725883653  -0.001154724585465  -0.006753667984067 1
force Ti  -0.003498236142209   0.000258655821348   0.006840752542899 1
force Ti  -0.001735157192255  -0.000978025461613  -0.000248840982453 1
force Ti   0.000538725883653  -0.001154724585465  -0.006753667984522 1
force Ti  -0.003498236142209   0.000258655821348   0.006840752542445 1
force Ti  -0.001735157192255  -0.000978025461613  -0.000248840982453 1
force Ti   0.000538725883653  -0.001154724585465  -0.006753667984977 1
force Ti  -0.003498236142209   0.000258655821348   0.006840752542445 1
force Ti  -0.001735157192255  -0.000978025461613  -0.000248840982453 1
force Ti   0.000538725883653  -0.001154724585465  -0.006753667984522 1
force Ti  -0.003498236142209   0.000258655821348   0.006840752543354 1
force Ti  -0.001735157192255  -0.000978025461613  -0.000248840982453 1
force Ti   0.000538725883653  -0.001154724585465  -0.006753667984067 1
force Ti  -0.003498236142209   0.000258655821348   0.006840752541990 1
force Ti  -0.001735157192255  -0.000978025461613  -0.000248840982453 1
force Ti   0.000538725883653  -0.001154724585465  -0.006753667984977 1
force Ti  -0.003498236142209   0.000258655821348   0.006840752542445 1
force Ti  -0.001735157192255  -0.000978025461613  -0.000248840982453 1
force Ti   0.000538725883653  -0.001154724585465  -0.006753667984522 1
force Ti  -0.003498236142209   0.000258655821348   0.006840752542445 1
force Ti  -0.001735157192255  -0.000978025461613  -0.000248840982453 1
force Ti   0.000538725883653  -0.001154724585465  -0.006753667983612 1
force Ti  -0.003498236142209   0.000258655821348   0.006840752542445 1
force Ti  -0.001735157192255  -0.000978025461613  -0.000248840982453 1
force Ti   0.000538725883653  -0.001154724585465  -0.006753667984976 1
force Ti  -0.003498236142209   0.000258655821348   0.006840752541990 1
force Ti  -0.001735157192255  -0.000978025461613  -0.000248840982453 1
force Ti   0.000538725883653  -0.001154724585465  -0.006753667985431 1
force Ti  -0.003498236142209   0.000258655821348   0.006840752542445 1
force Ti  -0.001735157192255  -0.000978025461613  -0.000248840982453 1
force Ti   0.000538725883653  -0.001154724585465  -0.006753667984976 1
force Ti  -0.003498236142209   0.000258655821348   0.006840752542445 1
force Ti  -0.001735157192255  -0.000978025461613  -0.000248840982453 1
force Ti   0.000538725883653  -0.001154724585465  -0.006753667985431 1
force Ti  -0.003498236142209   0.000258655821348   0.006840752542445 1
force O  -0.000829742534965  -0.000065797657019  -0.003631913473555 1
force O  -0.000185574162473  -0.000296663393481   0.003523080827961 1
force O  -0.000829742534965  -0.000065797657019  -0.003631913473555 1
force O  -0.000185574162473  -0.000296663393481   0.003523080827961 1
force O  -0.000829742534965  -0.000065797657019  -0.003631913473555 1
force O  -0.000185574162473  -0.000296663393481   0.003523080827961 1
force O  -0.000829742534965  -0.000065797657019  -0.003631913473555 1
force O  -0.000185574162473  -0.000296663393481   0.003523080827961 1
force O  -0.000829742534965  -0.000065797657019  -0.003631913473555 1
force O  -0.000185574162473  -0.000296663393481   0.003523080828415 1
force O  -0.000829742534965  -0.000065797657019  -0.003631913473555 1
force O  -0.000185574162473  -0.000296663393481   0.003523080828412 1
force O  -0.000829742534965  -0.000065797657019  -0.003631913473555 1
force O  -0.000185574162473  -0.000296663393481   0.003523080828412 1
force O  -0.000829742534965  -0.000065797657019  -0.003631913473555 1
force O  -0.000185574162473  -0.000296663393481   0.003523080828870 1
force O  -0.000829742534965  -0.000065797657019  -0.003631913473555 1
force O  -0.000185574162473  -0.000296663393481   0.003523080828412 1
force O  -0.000829742534965  -0.000065797657019  -0.003631913474006 1
force O  -0.000185574162473  -0.000296663393481   0.003523080828408 1
force O  -0.000829742534965  -0.000065797657019  -0.003631913473555 1
force O  -0.000185574162473  -0.000296663393481   0.003523080828412 1
force O  -0.000829742534965  -0.000065797657019  -0.003631913474010 1
force O  -0.000185574162473  -0.000296663393481   0.003523080828415 1
force O  -0.000829742534965  -0.000065797657019  -0.003631913474010 1
force O  -0.000185574162473  -0.000296663393481   0.003523080827957 1
force O  -0.000829742534965  -0.000065797657019  -0.003631913474010 1
force O  -0.000185574162473  -0.000296663393481   0.003523080827961 1
force O  -0.000829742534965  -0.000065797657019  -0.003631913474006 1
force O  -0.000185574162473  -0.000296663393481   0.003523080827961 1
force O  -0.000829742534965  -0.000065797657019  -0.003631913474006 1
force O  -0.000185574162473  -0.000296663393481   0.003523080827957 1

# Energy components:
   A_diel =       -0.0648454285284183
   Eewald =    48760.7128145899696392
       EH =    51714.3932422470097663
     Eloc =  -104733.6573973631166155
      Enl =      356.4079904828174676
      Exc =     -608.6886266967374013
 Exc_core =       66.0155898424124246
       KE =      943.5797795132841657
  MuShift =       -0.0119729634454841
-------------------------------------
     Etot =    -3501.3134257763385904
       TS =        0.0430164222876132
-------------------------------------
        F =    -3501.3564421986261550

IonicMinimize: Iter:   4  F: -3501.356442198626155  |grad|_K:  9.555e-05  alpha:  1.000e+00  linmin:  4.589e-01  t[s]:  15474.60
IonicMinimize: Converged (|grad|_K<1.000000e-04).

#--- Lowdin population analysis ---
# oxidation-state C -1.125 -1.125 -1.125 -1.125 -1.125 -1.125 -1.125 -1.125 -1.125 -1.125 -1.125 -1.125 -1.125 -1.125 -1.125 -1.125 -1.125 -1.125 -1.125 -1.125 -1.125 -1.125 -1.125 -1.125 -1.125 -1.125 -1.125 -1.125 -1.125 -1.125 -1.125 -1.125
# oxidation-state Ti +1.182 +1.381 +1.381 +1.182 +1.381 +1.381 +1.182 +1.381 +1.381 +1.182 +1.381 +1.381 +1.182 +1.381 +1.381 +1.182 +1.381 +1.381 +1.182 +1.381 +1.381 +1.182 +1.381 +1.381 +1.182 +1.381 +1.381 +1.182 +1.381 +1.381 +1.182 +1.381 +1.381 +1.182 +1.381 +1.381 +1.182 +1.381 +1.381 +1.182 +1.381 +1.381 +1.182 +1.381 +1.381 +1.182 +1.381 +1.381
# oxidation-state O -0.729 -0.729 -0.729 -0.729 -0.729 -0.729 -0.729 -0.729 -0.729 -0.729 -0.729 -0.729 -0.729 -0.729 -0.729 -0.729 -0.729 -0.729 -0.729 -0.729 -0.729 -0.729 -0.729 -0.729 -0.729 -0.729 -0.729 -0.729 -0.729 -0.729 -0.729 -0.729


Dumping 'NbTe2.fillings' ... done
Dumping 'NbTe2.wfns' ... done
Dumping 'NbTe2.fluidState' ... done
Dumping 'NbTe2.ionpos' ... done
Dumping 'NbTe2.eigenvals' ... done
End date and time: Thu Apr  1 14:21:48 2021  (Duration: 0-4:18:10.27)
Done!
