
*************** JDFTx 1.5.0  ***************

Start date and time: Mon Jan 11 12:05:26 2021
Executable jdftx_gpu with command-line: -i Charged.in -o Charged.out
Running on hosts (process indices):  amax (0-4)
Divided in process groups (process indices):  0 (0)  1 (1)  2 (2)  3 (3)  4 (4)
gpuInit: Found compatible cuda device 0 'Tesla K80'
gpuInit: Found compatible cuda device 1 'Tesla K80'
gpuInit: Found compatible cuda device 2 'Tesla K80'
gpuInit: Found compatible cuda device 3 'Tesla K80'
gpuInit: Found compatible cuda device 4 'Tesla K80'
gpuInit: Selected device 0
Resource initialization completed at t[s]:      2.49
Run totals: 5 processes, 24 threads, 5 GPUs


Input parsed successfully to the following command list (including defaults):

basis kpoint-dependent
cache-projectors no
coords-type Lattice
core-overlap-check none
coulomb-interaction Slab 001
coulomb-truncation-embed 0.5 0.5 0.5
davidson-band-ratio 1.1
dump End State
dump-name NbTe2.$VAR
elec-cutoff 20
elec-eigen-algo Davidson
elec-ex-corr gga-PBE
elec-initial-magnetization 5.000000 no
elec-smearing Gauss 0.0073499
electronic-minimize  \
	dirUpdateScheme      FletcherReeves \
	linminMethod         DirUpdateRecommended \
	nIterations          200 \
	history              15 \
	knormThreshold       0 \
	energyDiffThreshold  1e-08 \
	nEnergyDiff          2 \
	alphaTstart          1 \
	alphaTmin            1e-10 \
	updateTestStepSize   yes \
	alphaTreduceFactor   0.1 \
	alphaTincreaseFactor 3 \
	nAlphaAdjustMax      3 \
	wolfeEnergy          0.0001 \
	wolfeGradient        0.9 \
	fdTest               no
exchange-regularization WignerSeitzTruncated
fluid LinearPCM 298.000000 1.013250
fluid-anion F- 1 MeanFieldLJ \
	epsBulk 1 \
	pMol 0 \
	epsInf 1 \
	Pvap 0 \
	sigmaBulk 0 \
	Rvdw 2.24877 \
	Res 0 \
	tauNuc 343133
fluid-cation Na+ 1 MeanFieldLJ \
	epsBulk 1 \
	pMol 0 \
	epsInf 1 \
	Pvap 0 \
	sigmaBulk 0 \
	Rvdw 2.19208 \
	Res 0 \
	tauNuc 343133
fluid-ex-corr lda-TF lda-PZ
fluid-gummel-loop 10 1.000000e-05
fluid-minimize  \
	dirUpdateScheme      PolakRibiere \
	linminMethod         DirUpdateRecommended \
	nIterations          400 \
	history              15 \
	knormThreshold       1e-11 \
	energyDiffThreshold  0 \
	nEnergyDiff          2 \
	alphaTstart          1 \
	alphaTmin            1e-10 \
	updateTestStepSize   yes \
	alphaTreduceFactor   0.1 \
	alphaTincreaseFactor 3 \
	nAlphaAdjustMax      6 \
	wolfeEnergy          0.0001 \
	wolfeGradient        0.9 \
	fdTest               no
fluid-solvent H2O 55.338 ScalarEOS \
	epsBulk 78.4 \
	pMol 0.92466 \
	epsInf 1.77 \
	Pvap 1.06736e-10 \
	sigmaBulk 4.62e-05 \
	Rvdw 2.61727 \
	Res 1.42 \
	tauNuc 343133 \
	poleEl 15 7 1
forces-output-coords Positions
initial-state NbTe2.$VAR
ion W   0.083484982610626   0.165922617626043   0.501184098769456 1
ion W   0.333284663563517   0.165588477618556   0.500721630667583 1
ion W   0.583169300046311   0.165757148508080   0.500348469169274 1
ion W   0.833233697069559   0.165775509172255   0.500582317463458 1
ion W   0.084178118485800   0.416771802966539   0.500533386916959 1
ion W   0.334124398648132   0.416036592689963   0.502934792705704 1
ion W   0.583517312658112   0.415655314239874   0.501224809992841 1
ion W   0.833359224205576   0.415889016559959   0.500338780711009 1
ion W   0.082771083680597   0.665811229938652   0.499579229482029 1
ion W   0.331699875176339   0.667378327604810   0.497086311266366 1
ion W   0.583106864931510   0.665099193328458   0.502941225699784 1
ion W   0.833583447711779   0.665821687614059   0.500680178737461 1
ion W   0.083164250372338   0.915989094524630   0.500357051363163 1
ion W   0.333211685738939   0.916333269945752   0.499569455874294 1
ion W   0.582259904866109   0.914948770474125   0.500450034689718 1
ion W   0.833177433836464   0.915647034374549   0.501105789716791 1
ion S   0.166711764333719   0.083174993555626   0.413929022404813 1
ion S   0.166580624739469   0.081943066234875   0.587620868113906 1
ion S   0.416720000027756   0.083556381736766   0.413293768363528 1
ion S   0.416633716014020   0.081720651719417   0.587099491171990 1
ion S   0.666582384541907   0.082073171785895   0.413771335105209 1
ion S   0.666073214460636   0.082048763660698   0.587069117431587 1
ion S   0.916861852058798   0.082319156712326   0.414245936629286 1
ion S   0.916385330313787   0.082657544795364   0.587610803340929 1
ion S   0.167913299867889   0.332932964230240   0.414805289835531 1
ion S   0.165353349315720   0.332178220259456   0.588273290742333 1
ion S   0.416435947690118   0.333479162299158   0.414739150694452 1
ion S   0.417149590538389   0.330990318317197   0.588247448706853 1
ion S   0.666365515975583   0.332669596604385   0.413779380227586 1
ion S   0.667184423752498   0.331995335134700   0.587442007201302 1
ion S   0.917033366879065   0.332384768841232   0.413809264388187 1
ion S   0.917005196795542   0.332879824011521   0.587090562833367 1
ion S   0.164990027426200   0.582049478204698   0.412016560869562 1
ion S   0.168102437950633   0.584089801463524   0.586168529441763 1
ion S   0.417282433448980   0.581771077652445   0.415610350147578 1
ion S   0.421782945660148   0.577386716414865   0.595520406279476 1
ion S   0.665672018876109   0.582768970696549   0.414779760309937 1
ion S   0.668212396059129   0.582070421989747   0.588261248412795 1
ion S   0.915576225569095   0.582302529219723   0.413270108471574 1
ion S   0.917357459543967   0.582465167605840   0.587085403829944 1
ion S   0.166038935075398   0.832937372737541   0.412974958430344 1
ion S   0.166726543017850   0.832364516100300   0.586432280349648 1
ion S   0.416845407822841   0.834088607066900   0.411973773811537 1
ion S   0.415022248295476   0.831009554952545   0.586127870329997 1
ion S   0.666084775977017   0.831186169611855   0.414730359260569 1
ion S   0.667036614284239   0.833994501823350   0.588211765744505 1
ion S   0.916030222472124   0.832456172376652   0.413911224858219 1
ion S   0.917078032531267   0.832443397666958   0.587558960989704 1
ion H   0.468855248082958   0.529676035331371   0.649512532046077 1
ion-species GBRV/$ID_pbe.uspp
ion-width Ecut
ionic-minimize  \
	dirUpdateScheme      L-BFGS \
	linminMethod         DirUpdateRecommended \
	nIterations          500 \
	history              15 \
	knormThreshold       0.0001 \
	energyDiffThreshold  1e-06 \
	nEnergyDiff          2 \
	alphaTstart          1 \
	alphaTmin            1e-10 \
	updateTestStepSize   yes \
	alphaTreduceFactor   0.1 \
	alphaTincreaseFactor 3 \
	nAlphaAdjustMax      3 \
	wolfeEnergy          0.0001 \
	wolfeGradient        0.9 \
	fdTest               no
kpoint   0.000000000000   0.000000000000   0.000000000000  1.00000000000000
kpoint-folding 3 3 1 
latt-move-scale 1 1 1
latt-scale 1.88973 1.88973 1.88973 
lattice Triclinic 12.7007 12.7008 18.1461 90 90 120
lattice-minimize  \
	dirUpdateScheme      L-BFGS \
	linminMethod         DirUpdateRecommended \
	nIterations          0 \
	history              15 \
	knormThreshold       0 \
	energyDiffThreshold  1e-06 \
	nEnergyDiff          2 \
	alphaTstart          1 \
	alphaTmin            1e-10 \
	updateTestStepSize   yes \
	alphaTreduceFactor   0.1 \
	alphaTincreaseFactor 3 \
	nAlphaAdjustMax      3 \
	wolfeEnergy          0.0001 \
	wolfeGradient        0.9 \
	fdTest               no
lcao-params -1 1e-06 0.0073499
pcm-variant CANDLE
spintype z-spin
subspace-rotation-factor 1 yes
symmetries automatic
symmetry-threshold 0.0001
target-mu -0.171252 no




---------- Setting up symmetries ----------

Found 24 point-group symmetries of the bravais lattice
Found 1 space-group symmetries with basis
Applied RMS atom displacement 0 bohrs to make symmetries exact.

---------- Initializing the Grid ----------
R = 
[    24.0008   -12.0005          0  ]
[          0    20.7855          0  ]
[          0          0    34.2912  ]
unit cell volume = 17106.8
G =
[    0.26179   0.151145         -0  ]
[          0   0.302287          0  ]
[          0         -0    0.18323  ]
Minimum fftbox size, Smin = [  100  100  140  ]
Chosen fftbox size, S = [  100  100  140  ]

---------- Exchange Correlation functional ----------
Initalized PBE GGA exchange.
Initalized PBE GGA correlation.

---------- Setting up pseudopotentials ----------
Width of ionic core gaussian charges (only for fluid interactions / plotting) set to 0.397384

Reading pseudopotential file '/home/guoxy/vasp/jdftx-1.5.0/build/pseudopotentials/GBRV/w_pbe.uspp':
  Title: W.  Created by USPP 7.3.6 on 3-2-2014
  Reference state energy: -79.133630.  14 valence electrons in orbitals:
    |500>  occupation: 2  eigenvalue: -2.938934
    |510>  occupation: 6  eigenvalue: -1.620730
    |520>  occupation: 3.9  eigenvalue: -0.194511
    |600>  occupation: 2  eigenvalue: -0.234858
    |610>  occupation: 0  eigenvalue: -0.069444
  lMax: 3  lLocal: 3  QijEcut: 5
  8 projectors sampled on a log grid with 667 points:
    l: 0  eig: -2.938934  rCut: 1.45
    l: 0  eig: -0.234859  rCut: 1.45
    l: 0  eig: 0.500000  rCut: 1.45
    l: 1  eig: -1.620730  rCut: 1.5
    l: 1  eig: -0.069446  rCut: 1.5
    l: 2  eig: -0.194511  rCut: 1.7
    l: 2  eig: 0.150000  rCut: 1.7
    l: 3  eig: 0.500000  rCut: 2.3
  Partial core density with radius 1.2
  Transforming core density to a uniform radial grid of dG=0.02 with 1463 points.
  Transforming local potential to a uniform radial grid of dG=0.02 with 1463 points.
  Transforming nonlocal projectors to a uniform radial grid of dG=0.02 with 432 points.
  Transforming density augmentations to a uniform radial grid of dG=0.02 with 1463 points.
  Transforming atomic orbitals to a uniform radial grid of dG=0.02 with 432 points.
  Core radius for overlap checks: 2.30 bohrs.

Reading pseudopotential file '/home/guoxy/vasp/jdftx-1.5.0/build/pseudopotentials/GBRV/s_pbe.uspp':
  Title: S.  Created by USPP 7.3.6 on 1-4-15
  Reference state energy: -11.898476.  6 valence electrons in orbitals:
    |300>  occupation: 2  eigenvalue: -0.634167
    |310>  occupation: 4  eigenvalue: -0.257568
  lMax: 2  lLocal: 3  QijEcut: 6
  6 projectors sampled on a log grid with 635 points:
    l: 0  eig: -0.634161  rCut: 1.5
    l: 0  eig: 1.500000  rCut: 1.5
    l: 1  eig: -0.257567  rCut: 1.5
    l: 1  eig: 1.500000  rCut: 1.5
    l: 2  eig: -1.000000  rCut: 1.5
    l: 2  eig: 1.500000  rCut: 1.5
  Partial core density with radius 1.15
  Transforming core density to a uniform radial grid of dG=0.02 with 1463 points.
  Transforming local potential to a uniform radial grid of dG=0.02 with 1463 points.
  Transforming nonlocal projectors to a uniform radial grid of dG=0.02 with 432 points.
  Transforming density augmentations to a uniform radial grid of dG=0.02 with 1463 points.
  Transforming atomic orbitals to a uniform radial grid of dG=0.02 with 432 points.
  Core radius for overlap checks: 1.50 bohrs.

Reading pseudopotential file '/home/guoxy/vasp/jdftx-1.5.0/build/pseudopotentials/GBRV/h_pbe.uspp':
  Title: H.  Created by USPP 7.3.6 on 2-4-15
  Reference state energy: -0.458849.  1 valence electrons in orbitals:
    |100>  occupation: 1  eigenvalue: -0.238595
  lMax: 0  lLocal: 1  QijEcut: 6
  2 projectors sampled on a log grid with 395 points:
    l: 0  eig: -0.238595  rCut: 1.2
    l: 0  eig: 1.000000  rCut: 1.2
  Transforming local potential to a uniform radial grid of dG=0.02 with 1463 points.
  Transforming nonlocal projectors to a uniform radial grid of dG=0.02 with 432 points.
  Transforming density augmentations to a uniform radial grid of dG=0.02 with 1463 points.
  Transforming atomic orbitals to a uniform radial grid of dG=0.02 with 432 points.
  Core radius for overlap checks: 1.20 bohrs.

Initialized 3 species with 49 total atoms.

Folded 1 k-points by 3x3x1 to 9 k-points.

---------- Setting up k-points, bands, fillings ----------
Adding inversion symmetry to k-mesh for non-inversion-symmetric unit cell.
Reduced to 5 k-points under symmetry. 
Computing the number of bands and number of electrons
Calculating initial fillings.
nElectrons: 417.000000   nBands: 337   nStates: 10

----- Setting up reduced wavefunction bases (one per k-point) -----
average nbasis = 73077.889 , ideal nbasis = 73081.621

---------- Setting up coulomb interaction ----------
Fluid mode embedding: using embedded box, but periodic Coulomb kernel.
(Fluid response is responsible for (approximate) separation between periodic images.)
Setting up double-sized grid for truncated Coulomb potentials:
R = 
[    24.0008   -12.0005          0  ]
[          0    20.7855          0  ]
[          0          0    68.5823  ]
unit cell volume = 34213.6
G =
[    0.26179   0.151145         -0  ]
[          0   0.302287          0  ]
[          0         -0  0.0916152  ]
Chosen fftbox size, S = [  100  100  280  ]
Integer grid location selected as the embedding center:
   Grid: [  50  50  70  ]
   Lattice: [  0.5  0.5  0.5  ]
   Cartesian: [  6.00016  10.3928  17.1456  ]
Constructing Wigner-Seitz cell: 8 faces (6 quadrilaterals, 2 hexagons)
Range-separation parameter for embedded mesh potentials due to point charges: 0.624363 bohrs.

Initializing van der Waals corrections
	NOTE: vdW corrections apply only for interactions with fluid.
	 W:  C6:  815.23 Eh-a0^6  R0: 3.326 a0 (WARNING: beyond Grimme's data set)
	 S:  C6:   96.61 Eh-a0^6  R0: 3.180 a0
	 H:  C6:    2.43 Eh-a0^6  R0: 1.892 a0

---------- Setting up ewald sum ----------
Optimum gaussian width for ewald sums = 6.770339 bohr.
Real space sum over 605 unit cells with max indices [  5  5  2  ]
Reciprocal space sum over 7875 terms with max indices [  7  7  17  ]

---------- Allocating electronic variables ----------
Initializing wave functions:  linear combination of atomic orbitals
W pseudo-atom occupations:   s ( 2 2 )  p ( 6 0 )  d ( 4 )
S pseudo-atom occupations:   s ( 2 )  p ( 4 )
H pseudo-atom occupations:   s ( 1 )
	FillingsUpdate:  mu: -0.171251800  nElectrons: 417.000000  magneticMoment: [ Abs: 1.36561  Tot: +1.29245 ]
LCAOMinimize: Iter:   0  G: -1318.4774199874648275  |grad|_K:  2.320e-02  alpha:  1.000e+00
LCAOMinimize: 	Step increased G by 2.180157e+01, reducing alpha to 4.378664e-02.
	FillingsUpdate:  mu: -0.171251800  nElectrons: 417.000000  magneticMoment: [ Abs: 1.45430  Tot: +1.08409 ]
LCAOMinimize: Iter:   1  G: -1344.2321613352089571  |grad|_K:  1.478e-02  alpha:  4.379e-02  linmin: -3.367e-01  cgtest:  8.855e-01  t[s]:    261.42
LCAOMinimize: Encountered beta<0, resetting CG.
	FillingsUpdate:  mu: -0.171251800  nElectrons: 417.000000  magneticMoment: [ Abs: 1.17415  Tot: +0.57900 ]
LCAOMinimize: Iter:   2  G: -1354.7012712382982045  |grad|_K:  5.290e-03  alpha:  7.395e-02  linmin: -4.621e-01  cgtest:  1.230e+00  t[s]:    327.55
LCAOMinimize: Encountered beta<0, resetting CG.
	FillingsUpdate:  mu: -0.171251800  nElectrons: 417.000000  magneticMoment: [ Abs: 1.00693  Tot: +0.56242 ]
LCAOMinimize: Iter:   3  G: -1357.1609554736112386  |grad|_K:  6.756e-04  alpha:  1.472e-01  linmin: -3.872e-01  cgtest:  8.999e-01  t[s]:    394.37
LCAOMinimize: Encountered beta<0, resetting CG.
	FillingsUpdate:  mu: -0.171251800  nElectrons: 417.000000  magneticMoment: [ Abs: 0.95371  Tot: +0.54538 ]
LCAOMinimize: Iter:   4  G: -1357.1847443269991800  |grad|_K:  2.558e-04  alpha:  1.061e-01  linmin: -2.809e-01  cgtest:  8.979e-01  t[s]:    460.84
LCAOMinimize: Encountered beta<0, resetting CG.
	FillingsUpdate:  mu: -0.171251800  nElectrons: 417.000000  magneticMoment: [ Abs: 0.90207  Tot: +0.52468 ]
LCAOMinimize: Iter:   5  G: -1357.1893219568917175  |grad|_K:  9.982e-05  alpha:  1.179e-01  linmin: -4.054e-01  cgtest:  9.677e-01  t[s]:    527.27
LCAOMinimize: Encountered beta<0, resetting CG.
LCAOMinimize: 	Step increased G by 7.718805e-05, reducing alpha to 4.482164e-03.
LCAOMinimize: 	Step increased G by 3.081168e-06, reducing alpha to 4.482164e-04.
LCAOMinimize: 	Step increased G by 2.616810e-07, reducing alpha to 4.482164e-05.
LCAOMinimize: 	Step failed to reduce G after 3 attempts. Quitting step.
LCAOMinimize: 	Undoing step.
LCAOMinimize: 	Step failed along negative gradient direction.
LCAOMinimize: Probably at roundoff error limit. (Stopping)
----- createFluidSolver() ----- (Fluid-side solver setup)
   Initializing fluid molecule 'H2O'
     Initializing site 'O'
       Electron density: proportional to exp(-r/0.36935)*erfc((r-0.51523)/0.36823) with norm 6.826
       Charge density: gaussian nuclear width 0.478731 with net site charge 0.826
       Polarizability: cuspless exponential with width 0.32 and norm 3.73
       Hard sphere radius: 2.57003 bohrs
       Positions in reference frame:
         [ +0.000000 +0.000000 +0.000000 ]
     Initializing site 'H'
       Electron density: proportional to exp(-r/0.34641)*erfc((r-0)/0.390882) with norm 0.587
       Charge density: gaussian nuclear width 0.377945 with net site charge -0.413
       Polarizability: cuspless exponential with width 0.39 and norm 3.3
       Positions in reference frame:
         [ +0.000000 -1.441945 +1.122523 ]
         [ +0.000000 +1.441945 +1.122523 ]
     Net charge: 0   dipole magnitude: 0.927204
     Initializing spherical shell mfKernel with radius 2.61727 Bohr
     deltaS corrections:
       site 'O': -7.54299
       site 'H': -6.83917
   Initializing fluid molecule 'Na+'
     Initializing site 'Na'
       Electron density: proportional to exp(-r/0.19682)*erfc((r-0.71491)/0.41314) with norm 8.1383
       Charge density: gaussian nuclear width 0.365347 with net site charge -1
       Hard sphere radius: 1.86327 bohrs
       Positions in reference frame:
         [ +0.000000 +0.000000 +0.000000 ]
     Net charge: -1   dipole magnitude: 0
     Initializing gaussian mfKernel with width: 1.55004 Bohr
     deltaS corrections:
       site 'Na': -22.3555
   Initializing fluid molecule 'F-'
     Initializing site 'F'
       Electron density: proportional to exp(-r/0.38886)*erfc((r-0)/0.438782) with norm 8
       Charge density: gaussian nuclear width 0.374796 with net site charge 1
       Hard sphere radius: 2.39995 bohrs
       Positions in reference frame:
         [ +0.000000 +0.000000 +0.000000 ]
     Net charge: 1   dipole magnitude: 0
     Initializing gaussian mfKernel with width: 1.59012 Bohr
     deltaS corrections:
       site 'F': -9.04335

Correction to mu due to finite nuclear width = -0.0120931
   Cavity determined by nc: 0.00142 and sigma: 0.707107
   Nonlocal vdW cavity from gaussian model electron density with norm = 8 and sigma = 0.993594 bohr
   Charge asymmetry in cavity with sensitivity pCavity = 36.5 e-bohr/Eh
   Electrostatic cavity expanded by eta = 1.46 bohrs
   Weighted density cavitation model constrained by Nbulk: 0.0049383 bohr^-3, Pvap: 3.14029 kPa, Rvdw: 2.61727 bohr and sigmaBulk: 4.62e-05 Eh/bohr^2 at T: 298 K.
   Weighted density dispersion model using vdW pair potentials with single solvent site with sqrtC6eff: 0.77 SI.


---- Citations for features of the code used in this run ----

   Software package:
      R. Sundararaman, K. Letchworth-Weaver, K.A. Schwarz, D. Gunceler, Y. Ozhabes and T.A. Arias, 'JDFTx: software for joint density-functional theory', SoftwareX 6, 278 (2017)

   gga-PBE exchange-correlation functional:
      J.P. Perdew, K. Burke and M. Ernzerhof, Phys. Rev. Lett. 77, 3865 (1996)

   Pseudopotentials:
      KF Garrity, JW Bennett, KM Rabe and D Vanderbilt, Comput. Mater. Sci. 81, 446 (2014)

   Truncated Coulomb potentials:
      R. Sundararaman and T.A. Arias, Phys. Rev. B 87, 165122 (2013)

   Van der Waals correction pair-potentials:
      S. Grimme, J. Comput. Chem. 27, 1787 (2006)

   Charge-asymmetric nonlocally-determined local-electric (CANDLE) solvation model:
      R. Sundararaman and W.A. Goddard III, J. Chem. Phys. 142, 064107 (2015)

   Total energy minimization with Auxiliary Hamiltonian:
      C. Freysoldt, S. Boeck, and J. Neugebauer, Phys. Rev. B 79, 241103(R) (2009)

   Grand-canonical (fixed-potential) DFT:
      R. Sundararaman, W. A. Goddard III and T. A. Arias, J. Chem. Phys. 146, 114104 (2017)

This list may not be complete. Please suggest additional citations or
report any other bugs at https://github.com/shankar1729/jdftx/issues

Initialization completed successfully at t[s]:    748.85

Fluid solver invoked on fresh (partially random / LCAO) wavefunctions
Running a vacuum solve first:

-------- Initial electronic minimization -----------
	FillingsUpdate:  mu: -0.104237422  nElectrons: 417.000000  magneticMoment: [ Abs: 0.90191  Tot: +0.52462 ]
ElecMinimize: Iter:   0  G: -1357.070073292018606  |grad|_K:  9.069e-05  alpha:  1.000e+00
	FillingsUpdate:  mu: -0.051393094  nElectrons: 417.000000  magneticMoment: [ Abs: 0.61963  Tot: +0.38970 ]
	SubspaceRotationAdjust: set factor to 1.01
ElecMinimize: Iter:   1  G: -1358.667320997761635  |grad|_K:  4.325e-05  alpha:  7.894e-01  linmin: -1.235e-05  t[s]:    900.23
	FillingsUpdate:  mu: -0.050827766  nElectrons: 417.000000  magneticMoment: [ Abs: 0.47025  Tot: +0.32543 ]
	SubspaceRotationAdjust: set factor to 0.999
ElecMinimize: Iter:   2  G: -1358.943827066654194  |grad|_K:  2.857e-05  alpha:  6.021e-01  linmin: -1.897e-05  t[s]:    991.73
	FillingsUpdate:  mu: -0.079801120  nElectrons: 417.000000  magneticMoment: [ Abs: 0.39209  Tot: +0.27455 ]
	SubspaceRotationAdjust: set factor to 0.693
ElecMinimize: Iter:   3  G: -1359.002571799273710  |grad|_K:  2.235e-05  alpha:  2.804e-01  linmin: -9.606e-05  t[s]:   1083.28
	FillingsUpdate:  mu: -0.049212261  nElectrons: 417.000000  magneticMoment: [ Abs: 0.34093  Tot: +0.24279 ]
	SubspaceRotationAdjust: set factor to 0.469
ElecMinimize: Iter:   4  G: -1359.034170571365621  |grad|_K:  1.300e-05  alpha:  2.504e-01  linmin:  2.674e-05  t[s]:   1175.14
	FillingsUpdate:  mu: -0.063430145  nElectrons: 417.000000  magneticMoment: [ Abs: 0.28282  Tot: +0.20034 ]
	SubspaceRotationAdjust: set factor to 0.405
ElecMinimize: Iter:   5  G: -1359.052966201033541  |grad|_K:  8.313e-06  alpha:  4.559e-01  linmin:  5.844e-05  t[s]:   1266.88
	FillingsUpdate:  mu: -0.071940524  nElectrons: 417.000000  magneticMoment: [ Abs: 0.24466  Tot: +0.17109 ]
	SubspaceRotationAdjust: set factor to 0.503
ElecMinimize: Iter:   6  G: -1359.060657847884613  |grad|_K:  5.404e-06  alpha:  4.578e-01  linmin:  1.139e-05  t[s]:   1358.40
	FillingsUpdate:  mu: -0.062473330  nElectrons: 417.000000  magneticMoment: [ Abs: 0.21765  Tot: +0.15169 ]
	SubspaceRotationAdjust: set factor to 0.503
ElecMinimize: Iter:   7  G: -1359.064007547831125  |grad|_K:  3.678e-06  alpha:  4.664e-01  linmin:  9.027e-06  t[s]:   1450.44
	FillingsUpdate:  mu: -0.062089389  nElectrons: 417.000000  magneticMoment: [ Abs: 0.19059  Tot: +0.13311 ]
	SubspaceRotationAdjust: set factor to 0.599
ElecMinimize: Iter:   8  G: -1359.065625400958879  |grad|_K:  2.636e-06  alpha:  4.866e-01  linmin:  3.115e-06  t[s]:   1542.12
	FillingsUpdate:  mu: -0.065824346  nElectrons: 417.000000  magneticMoment: [ Abs: 0.16448  Tot: +0.11550 ]
	SubspaceRotationAdjust: set factor to 0.652
ElecMinimize: Iter:   9  G: -1359.066447822966893  |grad|_K:  1.789e-06  alpha:  4.804e-01  linmin:  1.099e-06  t[s]:   1633.79
	FillingsUpdate:  mu: -0.063888264  nElectrons: 417.000000  magneticMoment: [ Abs: 0.14511  Tot: +0.10240 ]
	SubspaceRotationAdjust: set factor to 0.591
ElecMinimize: Iter:  10  G: -1359.066753926351339  |grad|_K:  1.310e-06  alpha:  3.874e-01  linmin:  9.548e-07  t[s]:   1725.41
	FillingsUpdate:  mu: -0.064360986  nElectrons: 417.000000  magneticMoment: [ Abs: 0.12592  Tot: +0.08920 ]
	SubspaceRotationAdjust: set factor to 0.517
ElecMinimize: Iter:  11  G: -1359.066913883650614  |grad|_K:  8.122e-07  alpha:  3.781e-01  linmin:  2.107e-06  t[s]:   1816.78
	FillingsUpdate:  mu: -0.064405272  nElectrons: 417.000000  magneticMoment: [ Abs: 0.10923  Tot: +0.07764 ]
	SubspaceRotationAdjust: set factor to 0.615
ElecMinimize: Iter:  12  G: -1359.066984942407089  |grad|_K:  5.362e-07  alpha:  4.372e-01  linmin:  1.801e-06  t[s]:   1908.34
	FillingsUpdate:  mu: -0.064435047  nElectrons: 417.000000  magneticMoment: [ Abs: 0.09407  Tot: +0.06709 ]
	SubspaceRotationAdjust: set factor to 0.59
ElecMinimize: Iter:  13  G: -1359.067019596644059  |grad|_K:  4.227e-07  alpha:  4.892e-01  linmin:  1.731e-06  t[s]:   2000.52
	FillingsUpdate:  mu: -0.064806474  nElectrons: 417.000000  magneticMoment: [ Abs: 0.07950  Tot: +0.05679 ]
	SubspaceRotationAdjust: set factor to 0.607
ElecMinimize: Iter:  14  G: -1359.067038737370012  |grad|_K:  3.171e-07  alpha:  4.346e-01  linmin:  5.621e-07  t[s]:   2092.59
	FillingsUpdate:  mu: -0.064330849  nElectrons: 417.000000  magneticMoment: [ Abs: 0.06494  Tot: +0.04643 ]
	SubspaceRotationAdjust: set factor to 0.624
ElecMinimize: Iter:  15  G: -1359.067050622156330  |grad|_K:  2.451e-07  alpha:  4.793e-01  linmin:  1.163e-06  t[s]:   2184.14
	FillingsUpdate:  mu: -0.064546934  nElectrons: 417.000000  magneticMoment: [ Abs: 0.05300  Tot: +0.03788 ]
	SubspaceRotationAdjust: set factor to 0.661
ElecMinimize: Iter:  16  G: -1359.067056965971688  |grad|_K:  1.739e-07  alpha:  4.285e-01  linmin:  4.470e-07  t[s]:   2275.52
	FillingsUpdate:  mu: -0.064663320  nElectrons: 417.000000  magneticMoment: [ Abs: 0.04200  Tot: +0.03000 ]
	SubspaceRotationAdjust: set factor to 0.699
ElecMinimize: Iter:  17  G: -1359.067060664965311  |grad|_K:  1.393e-07  alpha:  4.962e-01  linmin:  6.818e-07  t[s]:   2366.95
	FillingsUpdate:  mu: -0.064422841  nElectrons: 417.000000  magneticMoment: [ Abs: 0.03325  Tot: +0.02373 ]
	SubspaceRotationAdjust: set factor to 0.666
ElecMinimize: Iter:  18  G: -1359.067062657764609  |grad|_K:  1.101e-07  alpha:  4.165e-01  linmin:  1.886e-07  t[s]:   2457.88
	FillingsUpdate:  mu: -0.064550786  nElectrons: 417.000000  magneticMoment: [ Abs: 0.02467  Tot: +0.01758 ]
	SubspaceRotationAdjust: set factor to 0.658
ElecMinimize: Iter:  19  G: -1359.067064020478256  |grad|_K:  9.074e-08  alpha:  4.555e-01  linmin:  2.920e-07  t[s]:   2549.61
	FillingsUpdate:  mu: -0.064514429  nElectrons: 417.000000  magneticMoment: [ Abs: 0.01770  Tot: +0.01260 ]
	SubspaceRotationAdjust: set factor to 0.644
ElecMinimize: Iter:  20  G: -1359.067064863610995  |grad|_K:  6.814e-08  alpha:  4.152e-01  linmin:  1.581e-07  t[s]:   2640.68
	FillingsUpdate:  mu: -0.064508987  nElectrons: 417.000000  magneticMoment: [ Abs: 0.01189  Tot: +0.00846 ]
	SubspaceRotationAdjust: set factor to 0.696
ElecMinimize: Iter:  21  G: -1359.067065403717152  |grad|_K:  5.393e-08  alpha:  4.716e-01  linmin:  1.541e-07  t[s]:   2732.17
	FillingsUpdate:  mu: -0.064531317  nElectrons: 417.000000  magneticMoment: [ Abs: 0.00773  Tot: +0.00550 ]
	SubspaceRotationAdjust: set factor to 0.688
ElecMinimize: Iter:  22  G: -1359.067065715046738  |grad|_K:  4.000e-08  alpha:  4.339e-01  linmin:  7.753e-08  t[s]:   2823.59
	FillingsUpdate:  mu: -0.064493677  nElectrons: 417.000000  magneticMoment: [ Abs: 0.00481  Tot: +0.00341 ]
	SubspaceRotationAdjust: set factor to 0.672
ElecMinimize: Iter:  23  G: -1359.067065890807498  |grad|_K:  3.163e-08  alpha:  4.452e-01  linmin:  6.094e-08  t[s]:   2915.00
	FillingsUpdate:  mu: -0.064533616  nElectrons: 417.000000  magneticMoment: [ Abs: 0.00303  Tot: +0.00214 ]
	SubspaceRotationAdjust: set factor to 0.588
ElecMinimize: Iter:  24  G: -1359.067065980531424  |grad|_K:  2.241e-08  alpha:  3.634e-01  linmin:  7.037e-09  t[s]:   3006.43
	FillingsUpdate:  mu: -0.064522508  nElectrons: 417.000000  magneticMoment: [ Abs: 0.00175  Tot: +0.00123 ]
	SubspaceRotationAdjust: set factor to 0.582
ElecMinimize: Iter:  25  G: -1359.067066034387835  |grad|_K:  1.675e-08  alpha:  4.347e-01  linmin:  8.365e-08  t[s]:   3098.29
	FillingsUpdate:  mu: -0.064517647  nElectrons: 417.000000  magneticMoment: [ Abs: 0.00087  Tot: +0.00061 ]
	SubspaceRotationAdjust: set factor to 0.6
ElecMinimize: Iter:  26  G: -1359.067066066256530  |grad|_K:  1.179e-08  alpha:  4.606e-01  linmin:  8.190e-08  t[s]:   3189.91
	FillingsUpdate:  mu: -0.064528293  nElectrons: 417.000000  magneticMoment: [ Abs: 0.00037  Tot: +0.00026 ]
	SubspaceRotationAdjust: set factor to 0.633
ElecMinimize: Iter:  27  G: -1359.067066082122437  |grad|_K:  9.055e-09  alpha:  4.627e-01  linmin:  3.064e-08  t[s]:   3281.54
	FillingsUpdate:  mu: -0.064519485  nElectrons: 417.000000  magneticMoment: [ Abs: 0.00010  Tot: +0.00007 ]
	SubspaceRotationAdjust: set factor to 0.589
ElecMinimize: Iter:  28  G: -1359.067066090106209  |grad|_K:  6.441e-09  alpha:  3.949e-01  linmin:  5.033e-08  t[s]:   3373.32
	FillingsUpdate:  mu: -0.064522949  nElectrons: 417.000000  magneticMoment: [ Abs: 0.00007  Tot: -0.00005 ]
	SubspaceRotationAdjust: set factor to 0.631
ElecMinimize: Iter:  29  G: -1359.067066094591155  |grad|_K:  4.524e-09  alpha:  4.390e-01  linmin:  1.453e-07  t[s]:   3464.63
ElecMinimize: Converged (|Delta G|<1.000000e-08 for 2 iters).
Setting wave functions to eigenvectors of Hamiltonian
Vacuum energy after initial minimize, F = -1359.067066094591155

Shifting auxilliary hamiltonian by -0.106729 to set nElectrons=417.000000
	Linear fluid (dielectric constant: 78.4, screening length: 5.74355 Bohr) occupying 0.753648 of unit cell:	Completed after 21 iterations at t[s]:   3485.70

-------- Electronic minimization -----------
	Linear fluid (dielectric constant: 78.4, screening length: 5.74355 Bohr) occupying 0.753648 of unit cell:	Completed after 0 iterations at t[s]:   3510.62
	FillingsUpdate:  mu: -0.171251800  nElectrons: 417.000000  magneticMoment: [ Abs: 0.00006  Tot: -0.00004 ]
ElecMinimize: Iter:   0  G: -1359.059905943827516  |grad|_K:  3.615e-06  alpha:  1.000e+00
	Linear fluid (dielectric constant: 78.4, screening length: 5.74355 Bohr) occupying 0.754212 of unit cell:	Completed after 18 iterations at t[s]:   3586.66
	Linear fluid (dielectric constant: 78.4, screening length: 5.74355 Bohr) occupying 0.753775 of unit cell:	Completed after 18 iterations at t[s]:   3619.35
	FillingsUpdate:  mu: -0.171251800  nElectrons: 416.887082  magneticMoment: [ Abs: 0.00007  Tot: -0.00003 ]
	SubspaceRotationAdjust: set factor to 0.37
ElecMinimize: Iter:   1  G: -1359.060519965075173  |grad|_K:  2.972e-06  alpha:  2.157e-01  linmin:  1.352e-03  t[s]:   3665.22
	Linear fluid (dielectric constant: 78.4, screening length: 5.74355 Bohr) occupying 0.753985 of unit cell:	Completed after 12 iterations at t[s]:   3695.29
	Linear fluid (dielectric constant: 78.4, screening length: 5.74355 Bohr) occupying 0.754135 of unit cell:	Completed after 12 iterations at t[s]:   3726.66
	FillingsUpdate:  mu: -0.171251800  nElectrons: 416.795824  magneticMoment: [ Abs: 0.00012  Tot: -0.00003 ]
	SubspaceRotationAdjust: set factor to 0.345
ElecMinimize: Iter:   2  G: -1359.061248023340795  |grad|_K:  1.371e-06  alpha:  3.735e-01  linmin: -8.430e-05  t[s]:   3770.71
	Linear fluid (dielectric constant: 78.4, screening length: 5.74355 Bohr) occupying 0.754321 of unit cell:	Completed after 10 iterations at t[s]:   3800.16
	Linear fluid (dielectric constant: 78.4, screening length: 5.74355 Bohr) occupying 0.754484 of unit cell:	Completed after 10 iterations at t[s]:   3831.14
	FillingsUpdate:  mu: -0.171251800  nElectrons: 416.767861  magneticMoment: [ Abs: 0.00014  Tot: -0.00003 ]
	SubspaceRotationAdjust: set factor to 0.323
ElecMinimize: Iter:   3  G: -1359.061578976635701  |grad|_K:  8.695e-07  alpha:  7.055e-01  linmin: -3.774e-05  t[s]:   3874.99
	Linear fluid (dielectric constant: 78.4, screening length: 5.74355 Bohr) occupying 0.754716 of unit cell:	Completed after 12 iterations at t[s]:   3905.00
	Linear fluid (dielectric constant: 78.4, screening length: 5.74355 Bohr) occupying 0.754644 of unit cell:	Completed after 6 iterations at t[s]:   3935.89
	FillingsUpdate:  mu: -0.171251800  nElectrons: 416.746120  magneticMoment: [ Abs: 0.00014  Tot: -0.00003 ]
	SubspaceRotationAdjust: set factor to 0.263
ElecMinimize: Iter:   4  G: -1359.061669189957229  |grad|_K:  5.976e-07  alpha:  4.822e-01  linmin:  9.529e-06  t[s]:   3978.46
	Linear fluid (dielectric constant: 78.4, screening length: 5.74355 Bohr) occupying 0.754755 of unit cell:	Completed after 10 iterations at t[s]:   4008.42
	Linear fluid (dielectric constant: 78.4, screening length: 5.74355 Bohr) occupying 0.754734 of unit cell:	Completed after 4 iterations at t[s]:   4038.56
	FillingsUpdate:  mu: -0.171251800  nElectrons: 416.749916  magneticMoment: [ Abs: 0.00013  Tot: -0.00002 ]
	SubspaceRotationAdjust: set factor to 0.198
ElecMinimize: Iter:   5  G: -1359.061703815665169  |grad|_K:  3.239e-07  alpha:  3.944e-01  linmin: -1.081e-05  t[s]:   4080.65
	Linear fluid (dielectric constant: 78.4, screening length: 5.74355 Bohr) occupying 0.754774 of unit cell:	Completed after 3 iterations at t[s]:   4109.26
	Linear fluid (dielectric constant: 78.4, screening length: 5.74355 Bohr) occupying 0.754796 of unit cell:	Completed after 3 iterations at t[s]:   4137.81
	FillingsUpdate:  mu: -0.171251800  nElectrons: 416.747843  magneticMoment: [ Abs: 0.00012  Tot: -0.00002 ]
	SubspaceRotationAdjust: set factor to 0.239
ElecMinimize: Iter:   6  G: -1359.061719764217059  |grad|_K:  1.895e-07  alpha:  6.146e-01  linmin: -9.499e-06  t[s]:   4179.93
	Linear fluid (dielectric constant: 78.4, screening length: 5.74355 Bohr) occupying 0.754821 of unit cell:	Completed after 3 iterations at t[s]:   4208.62
	Linear fluid (dielectric constant: 78.4, screening length: 5.74355 Bohr) occupying 0.754820 of unit cell:	Completed after 0 iterations at t[s]:   4236.93
	FillingsUpdate:  mu: -0.171251800  nElectrons: 416.746338  magneticMoment: [ Abs: 0.00012  Tot: -0.00002 ]
	SubspaceRotationAdjust: set factor to 0.254
ElecMinimize: Iter:   7  G: -1359.061725067987481  |grad|_K:  1.250e-07  alpha:  5.971e-01  linmin: -1.201e-06  t[s]:   4277.95
	Linear fluid (dielectric constant: 78.4, screening length: 5.74355 Bohr) occupying 0.754831 of unit cell:	Completed after 2 iterations at t[s]:   4306.60
	Linear fluid (dielectric constant: 78.4, screening length: 5.74355 Bohr) occupying 0.754830 of unit cell:	Completed after 0 iterations at t[s]:   4334.66
	FillingsUpdate:  mu: -0.171251800  nElectrons: 416.747685  magneticMoment: [ Abs: 0.00012  Tot: -0.00002 ]
	SubspaceRotationAdjust: set factor to 0.24
ElecMinimize: Iter:   8  G: -1359.061727302525014  |grad|_K:  7.749e-08  alpha:  5.789e-01  linmin:  7.381e-06  t[s]:   4375.69
	Linear fluid (dielectric constant: 78.4, screening length: 5.74355 Bohr) occupying 0.754834 of unit cell:	Completed after 2 iterations at t[s]:   4404.47
	Linear fluid (dielectric constant: 78.4, screening length: 5.74355 Bohr) occupying 0.754834 of unit cell:	Completed after 0 iterations at t[s]:   4432.36
	FillingsUpdate:  mu: -0.171251800  nElectrons: 416.747317  magneticMoment: [ Abs: 0.00011  Tot: -0.00002 ]
	SubspaceRotationAdjust: set factor to 0.306
ElecMinimize: Iter:   9  G: -1359.061728199531899  |grad|_K:  4.951e-08  alpha:  6.062e-01  linmin: -2.349e-05  t[s]:   4473.10
	Linear fluid (dielectric constant: 78.4, screening length: 5.74355 Bohr) occupying 0.754836 of unit cell:	Completed after 2 iterations at t[s]:   4502.23
	Linear fluid (dielectric constant: 78.4, screening length: 5.74355 Bohr) occupying 0.754836 of unit cell:	Completed after 0 iterations at t[s]:   4530.16
	FillingsUpdate:  mu: -0.171251800  nElectrons: 416.747085  magneticMoment: [ Abs: 0.00010  Tot: -0.00002 ]
	SubspaceRotationAdjust: set factor to 0.36
ElecMinimize: Iter:  10  G: -1359.061728535878046  |grad|_K:  3.456e-08  alpha:  5.413e-01  linmin: -1.804e-05  t[s]:   4571.50
	Linear fluid (dielectric constant: 78.4, screening length: 5.74355 Bohr) occupying 0.754837 of unit cell:	Completed after 0 iterations at t[s]:   4599.44
	Linear fluid (dielectric constant: 78.4, screening length: 5.74355 Bohr) occupying 0.754838 of unit cell:	Completed after 0 iterations at t[s]:   4626.34
	FillingsUpdate:  mu: -0.171251800  nElectrons: 416.747229  magneticMoment: [ Abs: 0.00008  Tot: -0.00002 ]
	SubspaceRotationAdjust: set factor to 0.462
ElecMinimize: Iter:  11  G: -1359.061728742961122  |grad|_K:  3.139e-08  alpha:  6.669e-01  linmin:  1.944e-07  t[s]:   4667.38
	Linear fluid (dielectric constant: 78.4, screening length: 5.74355 Bohr) occupying 0.754840 of unit cell:	Completed after 2 iterations at t[s]:   4696.25
	Linear fluid (dielectric constant: 78.4, screening length: 5.74355 Bohr) occupying 0.754838 of unit cell:	Completed after 0 iterations at t[s]:   4724.34
	FillingsUpdate:  mu: -0.171251800  nElectrons: 416.747368  magneticMoment: [ Abs: 0.00007  Tot: -0.00002 ]
	SubspaceRotationAdjust: set factor to 0.294
ElecMinimize: Iter:  12  G: -1359.061728804574614  |grad|_K:  7.289e-08  alpha:  1.963e-01  linmin:  6.030e-05  t[s]:   4765.85
	Linear fluid (dielectric constant: 78.4, screening length: 5.74355 Bohr) occupying 0.754842 of unit cell:	Completed after 0 iterations at t[s]:   4794.13
	Linear fluid (dielectric constant: 78.4, screening length: 5.74355 Bohr) occupying 0.754839 of unit cell:	Completed after 0 iterations at t[s]:   4821.40
	FillingsUpdate:  mu: -0.171251800  nElectrons: 416.747342  magneticMoment: [ Abs: 0.00007  Tot: -0.00002 ]
	SubspaceRotationAdjust: set factor to 0.206
ElecMinimize: Iter:  13  G: -1359.061728808052067  |grad|_K:  6.092e-08  alpha:  1.544e-02  linmin: -9.614e-08  t[s]:   4862.38
	Linear fluid (dielectric constant: 78.4, screening length: 5.74355 Bohr) occupying 0.754839 of unit cell:	Completed after 1 iterations at t[s]:   4890.89
	Linear fluid (dielectric constant: 78.4, screening length: 5.74355 Bohr) occupying 0.754839 of unit cell:	Completed after 0 iterations at t[s]:   4918.46
ElecMinimize: 	Step increased G by 5.811171e-08, reducing alpha to 3.090170e-04.
	Linear fluid (dielectric constant: 78.4, screening length: 5.74355 Bohr) occupying 0.754839 of unit cell:	Completed after 0 iterations at t[s]:   4982.40
ElecMinimize: 	Step increased G by 6.195751e-08, reducing alpha to 3.090170e-05.
	Linear fluid (dielectric constant: 78.4, screening length: 5.74355 Bohr) occupying 0.754839 of unit cell:	Completed after 0 iterations at t[s]:   5045.83
ElecMinimize: 	Step increased G by 6.234268e-08, reducing alpha to 3.090170e-06.
ElecMinimize: 	Step failed to reduce G after 3 attempts. Quitting step.
ElecMinimize: 	Undoing step.
	Linear fluid (dielectric constant: 78.4, screening length: 5.74355 Bohr) occupying 0.754839 of unit cell:	Completed after 0 iterations at t[s]:   5109.99
ElecMinimize: 	Step failed: resetting search direction.
	FillingsUpdate:  mu: -0.171251800  nElectrons: 416.747342  magneticMoment: [ Abs: 0.00007  Tot: -0.00002 ]
	SubspaceRotationAdjust: set factor to 0.198
ElecMinimize: Iter:  14  G: -1359.061728745675509  |grad|_K:  3.623e-08  alpha:  3.090e-06
	Linear fluid (dielectric constant: 78.4, screening length: 5.74355 Bohr) occupying 0.754839 of unit cell:	Completed after 0 iterations at t[s]:   5179.80
ElecMinimize: 	Predicted alpha/alphaT>3.000000, increasing alphaT to 4.633359e-02.
	Linear fluid (dielectric constant: 78.4, screening length: 5.74355 Bohr) occupying 0.754839 of unit cell:	Completed after 0 iterations at t[s]:   5207.38
ElecMinimize: 	Predicted alpha/alphaT>3.000000, increasing alphaT to 1.390008e-01.
	Linear fluid (dielectric constant: 78.4, screening length: 5.74355 Bohr) occupying 0.754839 of unit cell:	Completed after 0 iterations at t[s]:   5234.45
	Linear fluid (dielectric constant: 78.4, screening length: 5.74355 Bohr) occupying 0.754839 of unit cell:	Completed after 1 iterations at t[s]:   5262.56
	FillingsUpdate:  mu: -0.171251800  nElectrons: 416.746827  magneticMoment: [ Abs: 0.00006  Tot: -0.00002 ]
	SubspaceRotationAdjust: set factor to 0.29
ElecMinimize: Iter:  15  G: -1359.061728828680089  |grad|_K:  9.917e-09  alpha:  3.382e-01  linmin: -1.238e-04  t[s]:   5304.09
	Linear fluid (dielectric constant: 78.4, screening length: 5.74355 Bohr) occupying 0.754839 of unit cell:	Completed after 0 iterations at t[s]:   5332.53
	Linear fluid (dielectric constant: 78.4, screening length: 5.74355 Bohr) occupying 0.754839 of unit cell:	Completed after 0 iterations at t[s]:   5360.25
ElecMinimize: 	Step increased G by 4.617050e-09, reducing alpha to 1.790748e-02.
	Linear fluid (dielectric constant: 78.4, screening length: 5.74355 Bohr) occupying 0.754839 of unit cell:	Completed after 0 iterations at t[s]:   5424.22
ElecMinimize: 	Step increased G by 1.182002e-08, reducing alpha to 1.790748e-03.
	Linear fluid (dielectric constant: 78.4, screening length: 5.74355 Bohr) occupying 0.754839 of unit cell:	Completed after 0 iterations at t[s]:   5488.27
ElecMinimize: 	Step increased G by 1.265403e-08, reducing alpha to 1.790748e-04.
ElecMinimize: 	Step failed to reduce G after 3 attempts. Quitting step.
ElecMinimize: 	Undoing step.
	Linear fluid (dielectric constant: 78.4, screening length: 5.74355 Bohr) occupying 0.754839 of unit cell:	Completed after 0 iterations at t[s]:   5552.88
ElecMinimize: 	Step failed: resetting search direction.
	FillingsUpdate:  mu: -0.171251800  nElectrons: 416.746827  magneticMoment: [ Abs: 0.00006  Tot: -0.00002 ]
	SubspaceRotationAdjust: set factor to 0.368
ElecMinimize: Iter:  16  G: -1359.061728816031746  |grad|_K:  1.040e-08  alpha:  1.791e-04
	Linear fluid (dielectric constant: 78.4, screening length: 5.74355 Bohr) occupying 0.754839 of unit cell:	Completed after 0 iterations at t[s]:   5622.51
	Linear fluid (dielectric constant: 78.4, screening length: 5.74355 Bohr) occupying 0.754839 of unit cell:	Completed after 0 iterations at t[s]:   5649.87
	FillingsUpdate:  mu: -0.171251800  nElectrons: 416.746618  magneticMoment: [ Abs: 0.00005  Tot: -0.00002 ]
	SubspaceRotationAdjust: set factor to 0.457
ElecMinimize: Iter:  17  G: -1359.061728840862088  |grad|_K:  1.157e-08  alpha:  9.290e-01  linmin: -2.141e-08  t[s]:   5691.05
	Linear fluid (dielectric constant: 78.4, screening length: 5.74355 Bohr) occupying 0.754839 of unit cell:	Completed after 0 iterations at t[s]:   5719.16
	Linear fluid (dielectric constant: 78.4, screening length: 5.74355 Bohr) occupying 0.754839 of unit cell:	Completed after 0 iterations at t[s]:   5746.61
	FillingsUpdate:  mu: -0.171251800  nElectrons: 416.746358  magneticMoment: [ Abs: 0.00004  Tot: -0.00001 ]
	SubspaceRotationAdjust: set factor to 0.584
ElecMinimize: Iter:  18  G: -1359.061728857057460  |grad|_K:  9.004e-09  alpha:  4.894e-01  linmin: -3.214e-08  t[s]:   5787.77
	Linear fluid (dielectric constant: 78.4, screening length: 5.74355 Bohr) occupying 0.754839 of unit cell:	Completed after 0 iterations at t[s]:   5815.98
	Linear fluid (dielectric constant: 78.4, screening length: 5.74355 Bohr) occupying 0.754839 of unit cell:	Completed after 0 iterations at t[s]:   5843.51
	FillingsUpdate:  mu: -0.171251800  nElectrons: 416.745970  magneticMoment: [ Abs: 0.00002  Tot: -0.00001 ]
	SubspaceRotationAdjust: set factor to 0.701
ElecMinimize: Iter:  19  G: -1359.061728870222169  |grad|_K:  6.649e-09  alpha:  6.578e-01  linmin:  1.160e-07  t[s]:   5884.45
	Linear fluid (dielectric constant: 78.4, screening length: 5.74355 Bohr) occupying 0.754839 of unit cell:	Completed after 2 iterations at t[s]:   5913.64
	Linear fluid (dielectric constant: 78.4, screening length: 5.74355 Bohr) occupying 0.754839 of unit cell:	Completed after 0 iterations at t[s]:   5941.38
ElecMinimize: 	Step increased G by 4.827325e-08, reducing alpha to 4.980650e-03.
	Linear fluid (dielectric constant: 78.4, screening length: 5.74355 Bohr) occupying 0.754839 of unit cell:	Completed after 0 iterations at t[s]:   6005.64
ElecMinimize: 	Step increased G by 4.649860e-08, reducing alpha to 4.980650e-04.
	Linear fluid (dielectric constant: 78.4, screening length: 5.74355 Bohr) occupying 0.754839 of unit cell:	Completed after 0 iterations at t[s]:   6070.45
ElecMinimize: 	Step increased G by 4.633125e-08, reducing alpha to 4.980650e-05.
ElecMinimize: 	Step failed to reduce G after 3 attempts. Quitting step.
ElecMinimize: 	Undoing step.
	Linear fluid (dielectric constant: 78.4, screening length: 5.74355 Bohr) occupying 0.754839 of unit cell:	Completed after 0 iterations at t[s]:   6134.24
ElecMinimize: 	Step failed: resetting search direction.
	FillingsUpdate:  mu: -0.171251800  nElectrons: 416.745970  magneticMoment: [ Abs: 0.00002  Tot: -0.00001 ]
	SubspaceRotationAdjust: set factor to 0.433
ElecMinimize: Iter:  20  G: -1359.061728823878411  |grad|_K:  2.931e-08  alpha:  4.981e-05
	Linear fluid (dielectric constant: 78.4, screening length: 5.74355 Bohr) occupying 0.754840 of unit cell:	Completed after 3 iterations at t[s]:   6204.73
	Linear fluid (dielectric constant: 78.4, screening length: 5.74355 Bohr) occupying 0.754839 of unit cell:	Completed after 3 iterations at t[s]:   6233.43
	FillingsUpdate:  mu: -0.171251800  nElectrons: 416.746390  magneticMoment: [ Abs: 0.00002  Tot: -0.00001 ]
	SubspaceRotationAdjust: set factor to 0.231
ElecMinimize: Iter:  21  G: -1359.061728846347478  |grad|_K:  1.147e-08  alpha:  1.824e-01  linmin:  4.490e-05  t[s]:   6275.24
	Linear fluid (dielectric constant: 78.4, screening length: 5.74355 Bohr) occupying 0.754839 of unit cell:	Completed after 0 iterations at t[s]:   6303.60
ElecMinimize: 	Predicted alpha/alphaT>3.000000, increasing alphaT to 5.472876e-01.
	Linear fluid (dielectric constant: 78.4, screening length: 5.74355 Bohr) occupying 0.754840 of unit cell:	Completed after 0 iterations at t[s]:   6330.99
	Linear fluid (dielectric constant: 78.4, screening length: 5.74355 Bohr) occupying 0.754840 of unit cell:	Completed after 2 iterations at t[s]:   6358.81
ElecMinimize: 	Step increased G by 1.232893e-07, reducing alpha to 1.346671e-01.
	Linear fluid (dielectric constant: 78.4, screening length: 5.74355 Bohr) occupying 0.754839 of unit cell:	Completed after 2 iterations at t[s]:   6423.55
	FillingsUpdate:  mu: -0.171251800  nElectrons: 416.746369  magneticMoment: [ Abs: 0.00002  Tot: -0.00001 ]
	SubspaceRotationAdjust: set factor to 0.125
ElecMinimize: Iter:  22  G: -1359.061728871781270  |grad|_K:  8.783e-09  alpha:  1.347e-01  linmin:  7.061e-05  t[s]:   6465.65
	Linear fluid (dielectric constant: 78.4, screening length: 5.74355 Bohr) occupying 0.754840 of unit cell:	Completed after 0 iterations at t[s]:   6493.99
ElecMinimize: 	Predicted alpha/alphaT>3.000000, increasing alphaT to 4.040012e-01.
	Linear fluid (dielectric constant: 78.4, screening length: 5.74355 Bohr) occupying 0.754840 of unit cell:	Completed after 0 iterations at t[s]:   6521.14
	Linear fluid (dielectric constant: 78.4, screening length: 5.74355 Bohr) occupying 0.754840 of unit cell:	Completed after 0 iterations at t[s]:   6548.97
ElecMinimize: 	Step increased G by 3.944933e-09, reducing alpha to 7.329922e-02.
	Linear fluid (dielectric constant: 78.4, screening length: 5.74355 Bohr) occupying 0.754839 of unit cell:	Completed after 0 iterations at t[s]:   6614.31
ElecMinimize: 	Step increased G by 8.973757e-09, reducing alpha to 7.329922e-03.
	Linear fluid (dielectric constant: 78.4, screening length: 5.74355 Bohr) occupying 0.754839 of unit cell:	Completed after 0 iterations at t[s]:   6678.75
ElecMinimize: 	Step increased G by 1.025387e-08, reducing alpha to 7.329922e-04.
ElecMinimize: 	Step failed to reduce G after 3 attempts. Quitting step.
ElecMinimize: 	Undoing step.
	Linear fluid (dielectric constant: 78.4, screening length: 5.74355 Bohr) occupying 0.754839 of unit cell:	Completed after 0 iterations at t[s]:   6743.52
ElecMinimize: 	Step failed: resetting search direction.
	FillingsUpdate:  mu: -0.171251800  nElectrons: 416.746371  magneticMoment: [ Abs: 0.00002  Tot: -0.00001 ]
	SubspaceRotationAdjust: set factor to 0.107
ElecMinimize: Iter:  23  G: -1359.061728861509891  |grad|_K:  6.386e-09  alpha:  7.330e-04
	Linear fluid (dielectric constant: 78.4, screening length: 5.74355 Bohr) occupying 0.754839 of unit cell:	Completed after 0 iterations at t[s]:   6812.88
ElecMinimize: 	Predicted alpha/alphaT>3.000000, increasing alphaT to 4.040012e-01.
	Linear fluid (dielectric constant: 78.4, screening length: 5.74355 Bohr) occupying 0.754839 of unit cell:	Completed after 0 iterations at t[s]:   6840.25
ElecMinimize: 	Predicted alpha/alphaT>3.000000, increasing alphaT to 1.212004e+00.
	Linear fluid (dielectric constant: 78.4, screening length: 5.74355 Bohr) occupying 0.754840 of unit cell:	Completed after 0 iterations at t[s]:   6867.36
	Linear fluid (dielectric constant: 78.4, screening length: 5.74355 Bohr) occupying 0.754840 of unit cell:	Completed after 2 iterations at t[s]:   6895.18
ElecMinimize: 	Step increased G by 8.122788e-08, reducing alpha to 2.094534e-01.
	Linear fluid (dielectric constant: 78.4, screening length: 5.74355 Bohr) occupying 0.754839 of unit cell:	Completed after 0 iterations at t[s]:   6959.53
	FillingsUpdate:  mu: -0.171251800  nElectrons: 416.746414  magneticMoment: [ Abs: 0.00002  Tot: -0.00001 ]
	SubspaceRotationAdjust: set factor to 0.0891
ElecMinimize: Iter:  24  G: -1359.061728896473369  |grad|_K:  2.037e-08  alpha:  2.095e-01  linmin:  2.360e-04  t[s]:   7000.90
ElecMinimize: 	Bad step direction: g.d > 0.
ElecMinimize: 	Undoing step.
	Linear fluid (dielectric constant: 78.4, screening length: 5.74355 Bohr) occupying 0.754839 of unit cell:	Completed after 0 iterations at t[s]:   7030.03
ElecMinimize: 	Step failed: resetting search direction.
	FillingsUpdate:  mu: -0.171251800  nElectrons: 416.746414  magneticMoment: [ Abs: 0.00002  Tot: -0.00001 ]
	SubspaceRotationAdjust: set factor to 0.0815
	SubspaceRotationAdjust: resetting CG because factor has changed by 0.129079
	Linear fluid (dielectric constant: 78.4, screening length: 5.74355 Bohr) occupying 0.754839 of unit cell:	Completed after 0 iterations at t[s]:   7088.21
ElecMinimize: 	State modified externally: resetting search direction.
ElecMinimize: Iter:  25  G: -1359.061728896441991  |grad|_K:  1.885e-08  alpha:  0.000e+00
	Linear fluid (dielectric constant: 78.4, screening length: 5.74355 Bohr) occupying 0.754840 of unit cell:	Completed after 0 iterations at t[s]:   7158.12
ElecMinimize: 	Predicted alpha/alphaT>3.000000, increasing alphaT to 6.283602e-01.
	Linear fluid (dielectric constant: 78.4, screening length: 5.74355 Bohr) occupying 0.754840 of unit cell:	Completed after 2 iterations at t[s]:   7185.78
	Linear fluid (dielectric constant: 78.4, screening length: 5.74355 Bohr) occupying 0.754840 of unit cell:	Completed after 0 iterations at t[s]:   7214.28
ElecMinimize: 	Step increased G by 2.049342e-08, reducing alpha to 1.799365e-02.
	Linear fluid (dielectric constant: 78.4, screening length: 5.74355 Bohr) occupying 0.754839 of unit cell:	Completed after 0 iterations at t[s]:   7277.99
ElecMinimize: 	Step increased G by 1.764420e-09, reducing alpha to 1.799365e-03.
	Linear fluid (dielectric constant: 78.4, screening length: 5.74355 Bohr) occupying 0.754839 of unit cell:	Completed after 0 iterations at t[s]:   7342.86
ElecMinimize: 	Step increased G by 4.547474e-12, reducing alpha to 1.799365e-04.
ElecMinimize: 	Step failed to reduce G after 3 attempts. Quitting step.
ElecMinimize: 	Undoing step.
	Linear fluid (dielectric constant: 78.4, screening length: 5.74355 Bohr) occupying 0.754839 of unit cell:	Completed after 0 iterations at t[s]:   7407.19
ElecMinimize: 	Step failed along negative gradient direction.
ElecMinimize: Probably at roundoff error limit. (Stopping)
Setting wave functions to eigenvectors of Hamiltonian
Single-point solvation energy estimate, DeltaG = +0.005337198100051

# Ionic positions in lattice coordinates:
ion W   0.083484982610626   0.165922617626043   0.501184098769456 1
ion W   0.333284663563517   0.165588477618556   0.500721630667583 1
ion W   0.583169300046311   0.165757148508080   0.500348469169274 1
ion W   0.833233697069559   0.165775509172255   0.500582317463458 1
ion W   0.084178118485800   0.416771802966539   0.500533386916959 1
ion W   0.334124398648132   0.416036592689963   0.502934792705704 1
ion W   0.583517312658112   0.415655314239874   0.501224809992841 1
ion W   0.833359224205576   0.415889016559959   0.500338780711009 1
ion W   0.082771083680597   0.665811229938652   0.499579229482029 1
ion W   0.331699875176339   0.667378327604810   0.497086311266366 1
ion W   0.583106864931510   0.665099193328458   0.502941225699784 1
ion W   0.833583447711779   0.665821687614059   0.500680178737461 1
ion W   0.083164250372338   0.915989094524630   0.500357051363163 1
ion W   0.333211685738939   0.916333269945752   0.499569455874294 1
ion W   0.582259904866109   0.914948770474125   0.500450034689718 1
ion W   0.833177433836464   0.915647034374549   0.501105789716791 1
ion S   0.166711764333719   0.083174993555626   0.413929022404813 1
ion S   0.166580624739469   0.081943066234875   0.587620868113906 1
ion S   0.416720000027756   0.083556381736766   0.413293768363528 1
ion S   0.416633716014020   0.081720651719417   0.587099491171990 1
ion S   0.666582384541907   0.082073171785895   0.413771335105209 1
ion S   0.666073214460636   0.082048763660698   0.587069117431587 1
ion S   0.916861852058798   0.082319156712326   0.414245936629286 1
ion S   0.916385330313787   0.082657544795364   0.587610803340929 1
ion S   0.167913299867889   0.332932964230240   0.414805289835531 1
ion S   0.165353349315720   0.332178220259456   0.588273290742333 1
ion S   0.416435947690118   0.333479162299158   0.414739150694452 1
ion S   0.417149590538389   0.330990318317197   0.588247448706853 1
ion S   0.666365515975583   0.332669596604385   0.413779380227586 1
ion S   0.667184423752498   0.331995335134700   0.587442007201302 1
ion S   0.917033366879065   0.332384768841232   0.413809264388187 1
ion S   0.917005196795542   0.332879824011521   0.587090562833367 1
ion S   0.164990027426200   0.582049478204698   0.412016560869562 1
ion S   0.168102437950633   0.584089801463524   0.586168529441763 1
ion S   0.417282433448980   0.581771077652445   0.415610350147578 1
ion S   0.421782945660148   0.577386716414865   0.595520406279476 1
ion S   0.665672018876109   0.582768970696549   0.414779760309937 1
ion S   0.668212396059129   0.582070421989747   0.588261248412795 1
ion S   0.915576225569095   0.582302529219723   0.413270108471574 1
ion S   0.917357459543967   0.582465167605840   0.587085403829944 1
ion S   0.166038935075398   0.832937372737541   0.412974958430344 1
ion S   0.166726543017850   0.832364516100300   0.586432280349648 1
ion S   0.416845407822841   0.834088607066900   0.411973773811537 1
ion S   0.415022248295476   0.831009554952545   0.586127870329997 1
ion S   0.666084775977017   0.831186169611855   0.414730359260569 1
ion S   0.667036614284239   0.833994501823350   0.588211765744505 1
ion S   0.916030222472124   0.832456172376652   0.413911224858219 1
ion S   0.917078032531267   0.832443397666958   0.587558960989704 1
ion H   0.468855248082958   0.529676035331371   0.649512532046077 1


# Forces in Lattice coordinates:
force W  -0.002932800649911   0.003961840722583  -0.010963560408180 1
force W  -0.005181471177667  -0.003133332511687  -0.002344270579318 1
force W  -0.000249911272478   0.003773498273284  -0.005811241522210 1
force W   0.002550710071766  -0.001885820536284  -0.005701243997408 1
force W   0.014389800949500  -0.011452392021291  -0.003346319821634 1
force W  -0.014917085448355  -0.018793740475469  -0.036381992790406 1
force W   0.007641272643954  -0.007828938554903  -0.018522912313337 1
force W  -0.003245169205309  -0.000382357141640  -0.004300841010513 1
force W  -0.003726017861743   0.007609050205493   0.016319526048042 1
force W   0.020489108970108  -0.019737027110751   0.159116740117872 1
force W   0.019531934938346   0.010199853052433  -0.034005615170499 1
force W  -0.000560929790765   0.007203417128508  -0.000367945188173 1
force W  -0.004902064924146   0.002124829769053  -0.002110860322832 1
force W  -0.004340815447336   0.000312944595994   0.017426911057737 1
force W   0.011645865315243  -0.015715458259662   0.000588983389451 1
force W  -0.002754194041761   0.002157736612813  -0.006929658656149 1
force S  -0.001199121491498  -0.001583510861730  -0.029633558668989 1
force S  -0.000338228339653   0.002321910082376   0.023922271525597 1
force S   0.002379637319459  -0.004098830247342  -0.028582455834925 1
force S  -0.003705655679185   0.004228481246688   0.020689038131468 1
force S   0.001285792024696   0.002654799603760  -0.028423727177312 1
force S  -0.001686577800962  -0.001495022913121   0.033299240502791 1
force S  -0.004342822817094   0.003799879328370  -0.030751751383477 1
force S   0.003335720109670  -0.003626376074154   0.031650189411230 1
force S   0.004811166147069   0.000005139575683  -0.026414002425520 1
force S  -0.002353705307113  -0.003312779655315   0.023777557809460 1
force S   0.000687610280223  -0.003019203628273  -0.026017840489356 1
force S   0.002593085675323  -0.001901986058768   0.033155680929514 1
force S   0.002485406371087   0.000367196967858  -0.030515628534725 1
force S  -0.001549791838797  -0.000199919576162   0.028499580176225 1
force S  -0.003012966687120   0.002652655541290  -0.028919489757180 1
force S  -0.001053450314281   0.005369938477879   0.033049155407713 1
force S   0.012101658965607   0.011677979504164  -0.035566451935425 1
force S  -0.015186722992012   0.008150270368805   0.009233463796228 1
force S  -0.001935493799166   0.005029385172130  -0.027992460726044 1
force S   0.090378809402090  -0.091467202903345   0.001268362351931 1
force S   0.002521440966091  -0.002358873112832  -0.033284250280405 1
force S   0.000975614599474  -0.002492967437045   0.027077419493866 1
force S   0.003732052021071  -0.001862622030378  -0.028143537547237 1
force S  -0.000989600911286  -0.000107609832658   0.020629595637796 1
force S   0.003388377465484  -0.001069138991019  -0.026305038592890 1
force S  -0.004064607468201   0.002907389303668   0.034380290422070 1
force S  -0.006429750760622  -0.016363637309297  -0.033151432853291 1
force S  -0.010599270401341   0.016681759662532   0.009723549058819 1
force S   0.002631774643976  -0.004367019361916  -0.024495159054801 1
force S   0.000978239547705  -0.002612705289505   0.024438548250367 1
force S   0.000169113181935  -0.000104130707709  -0.032861507546756 1
force S  -0.000756960911131   0.004518404981754   0.025125098713752 1
force H  -0.106982987699013   0.109115316097851  -0.063262021588727 1

# Energy components:
   A_diel =        0.0247975528430137
   Eewald =     8775.0165021540160524
       EH =     9922.0383571135753300
     Eloc =   -20211.5458477810934710
      Enl =     -179.1684612664072347
      Exc =     -465.7988566856199668
 Exc_core =      230.1593488895994142
       KE =      498.8486854361781297
  MuShift =        0.0030666352466956
-------------------------------------
     Etot =    -1430.4224079516609436
       TS =        0.0078944483034495
-------------------------------------
        F =    -1430.4303023999643756
      muN =      -71.3685735034733568
-------------------------------------
        G =    -1359.0617288964911040

IonicMinimize: Iter:   0  G: -1359.061728896491104  |grad|_K:  8.428e-04  t[s]:   7467.17

#--- Lowdin population analysis ---
# oxidation-state W -0.532 -0.532 -0.533 -0.534 -0.534 -0.544 -0.537 -0.532 -0.532 -0.534 -0.544 -0.532 -0.533 -0.532 -0.534 -0.532
# magnetic-moments W +0.000 -0.000 -0.000 -0.000 +0.000 -0.000 -0.000 +0.000 -0.000 -0.000 -0.000 -0.000 -0.000 -0.000 +0.000 +0.000
# oxidation-state S +0.339 +0.338 +0.340 +0.341 +0.337 +0.338 +0.340 +0.340 +0.339 +0.337 +0.341 +0.333 +0.339 +0.339 +0.337 +0.338 +0.350 +0.338 +0.350 +0.375 +0.341 +0.332 +0.340 +0.341 +0.337 +0.341 +0.350 +0.338 +0.339 +0.337 +0.339 +0.338
# magnetic-moments S +0.000 +0.000 +0.000 -0.000 +0.000 -0.000 +0.000 +0.000 -0.000 -0.000 +0.000 +0.000 -0.000 -0.000 -0.000 +0.000 -0.000 -0.000 +0.000 -0.000 -0.000 -0.000 +0.000 -0.000 +0.000 -0.000 -0.000 -0.000 -0.000 -0.000 +0.000 -0.000
# oxidation-state H +0.123
# magnetic-moments H -0.000

Shifting auxilliary hamiltonian by 0.000057 to set nElectrons=416.746414
	Linear fluid (dielectric constant: 78.4, screening length: 5.74355 Bohr) occupying 0.754814 of unit cell:	Completed after 6 iterations at t[s]:   7497.26

-------- Electronic minimization -----------
	Linear fluid (dielectric constant: 78.4, screening length: 5.74355 Bohr) occupying 0.754814 of unit cell:	Completed after 0 iterations at t[s]:   7519.52
	FillingsUpdate:  mu: -0.171251800  nElectrons: 416.746414  magneticMoment: [ Abs: 0.00027  Tot: -0.00001 ]
ElecMinimize: Iter:   0  G: -1359.061781321766603  |grad|_K:  2.642e-07  alpha:  1.000e+00
	Linear fluid (dielectric constant: 78.4, screening length: 5.74355 Bohr) occupying 0.754817 of unit cell:	Completed after 6 iterations at t[s]:   7593.31
	Linear fluid (dielectric constant: 78.4, screening length: 5.74355 Bohr) occupying 0.754816 of unit cell:	Completed after 3 iterations at t[s]:   7622.56
	FillingsUpdate:  mu: -0.171251800  nElectrons: 416.743772  magneticMoment: [ Abs: 0.00030  Tot: -0.00001 ]
	SubspaceRotationAdjust: set factor to 0.0932
ElecMinimize: Iter:   1  G: -1359.061794083776704  |grad|_K:  1.410e-07  alpha:  7.404e-01  linmin:  1.882e-04  t[s]:   7664.89
	Linear fluid (dielectric constant: 78.4, screening length: 5.74355 Bohr) occupying 0.754818 of unit cell:	Completed after 1 iterations at t[s]:   7693.43
	Linear fluid (dielectric constant: 78.4, screening length: 5.74355 Bohr) occupying 0.754820 of unit cell:	Completed after 2 iterations at t[s]:   7721.35
	FillingsUpdate:  mu: -0.171251800  nElectrons: 416.742475  magneticMoment: [ Abs: 0.00029  Tot: -0.00001 ]
	SubspaceRotationAdjust: set factor to 0.119
ElecMinimize: Iter:   2  G: -1359.061800223667660  |grad|_K:  1.726e-07  alpha:  1.261e+00  linmin: -1.125e-05  t[s]:   7763.35
	Linear fluid (dielectric constant: 78.4, screening length: 5.74355 Bohr) occupying 0.754827 of unit cell:	Completed after 3 iterations at t[s]:   7791.78
	Linear fluid (dielectric constant: 78.4, screening length: 5.74355 Bohr) occupying 0.754825 of unit cell:	Completed after 0 iterations at t[s]:   7819.77
	FillingsUpdate:  mu: -0.171251800  nElectrons: 416.740676  magneticMoment: [ Abs: 0.00026  Tot: -0.00001 ]
	SubspaceRotationAdjust: set factor to 0.138
ElecMinimize: Iter:   3  G: -1359.061807432047999  |grad|_K:  1.867e-07  alpha:  9.773e-01  linmin:  1.185e-05  t[s]:   7861.06
	Linear fluid (dielectric constant: 78.4, screening length: 5.74355 Bohr) occupying 0.754833 of unit cell:	Completed after 2 iterations at t[s]:   7889.49
	Linear fluid (dielectric constant: 78.4, screening length: 5.74355 Bohr) occupying 0.754832 of unit cell:	Completed after 0 iterations at t[s]:   7917.30
	FillingsUpdate:  mu: -0.171251800  nElectrons: 416.739071  magneticMoment: [ Abs: 0.00019  Tot: -0.00001 ]
	SubspaceRotationAdjust: set factor to 0.153
ElecMinimize: Iter:   4  G: -1359.061814860464892  |grad|_K:  1.584e-07  alpha:  8.670e-01  linmin:  1.092e-05  t[s]:   7957.98
	Linear fluid (dielectric constant: 78.4, screening length: 5.74355 Bohr) occupying 0.754837 of unit cell:	Completed after 2 iterations at t[s]:   7986.54
	Linear fluid (dielectric constant: 78.4, screening length: 5.74355 Bohr) occupying 0.754836 of unit cell:	Completed after 0 iterations at t[s]:   8014.70
	FillingsUpdate:  mu: -0.171251800  nElectrons: 416.739208  magneticMoment: [ Abs: 0.00014  Tot: -0.00001 ]
	SubspaceRotationAdjust: set factor to 0.162
ElecMinimize: Iter:   5  G: -1359.061818561345262  |grad|_K:  1.170e-07  alpha:  5.983e-01  linmin:  1.231e-05  t[s]:   8055.92
	Linear fluid (dielectric constant: 78.4, screening length: 5.74355 Bohr) occupying 0.754838 of unit cell:	Completed after 0 iterations at t[s]:   8084.11
	Linear fluid (dielectric constant: 78.4, screening length: 5.74355 Bohr) occupying 0.754838 of unit cell:	Completed after 0 iterations at t[s]:   8111.24
	FillingsUpdate:  mu: -0.171251800  nElectrons: 416.739561  magneticMoment: [ Abs: 0.00009  Tot: -0.00000 ]
	SubspaceRotationAdjust: set factor to 0.169
ElecMinimize: Iter:   6  G: -1359.061820448181834  |grad|_K:  7.822e-08  alpha:  5.662e-01  linmin:  3.324e-08  t[s]:   8152.73
	Linear fluid (dielectric constant: 78.4, screening length: 5.74355 Bohr) occupying 0.754839 of unit cell:	Completed after 1 iterations at t[s]:   8180.93
	Linear fluid (dielectric constant: 78.4, screening length: 5.74355 Bohr) occupying 0.754838 of unit cell:	Completed after 0 iterations at t[s]:   8208.91
	FillingsUpdate:  mu: -0.171251800  nElectrons: 416.739913  magneticMoment: [ Abs: 0.00006  Tot: -0.00000 ]
	SubspaceRotationAdjust: set factor to 0.181
ElecMinimize: Iter:   7  G: -1359.061821135335776  |grad|_K:  5.262e-08  alpha:  4.646e-01  linmin: -1.519e-05  t[s]:   8250.14
	Linear fluid (dielectric constant: 78.4, screening length: 5.74355 Bohr) occupying 0.754839 of unit cell:	Completed after 0 iterations at t[s]:   8278.42
	Linear fluid (dielectric constant: 78.4, screening length: 5.74355 Bohr) occupying 0.754839 of unit cell:	Completed after 0 iterations at t[s]:   8306.02
	FillingsUpdate:  mu: -0.171251800  nElectrons: 416.740563  magneticMoment: [ Abs: 0.00004  Tot: -0.00000 ]
	SubspaceRotationAdjust: set factor to 0.221
ElecMinimize: Iter:   8  G: -1359.061821504761838  |grad|_K:  3.661e-08  alpha:  5.390e-01  linmin:  2.311e-06  t[s]:   8347.21
	Linear fluid (dielectric constant: 78.4, screening length: 5.74355 Bohr) occupying 0.754838 of unit cell:	Completed after 2 iterations at t[s]:   8376.07
	Linear fluid (dielectric constant: 78.4, screening length: 5.74355 Bohr) occupying 0.754838 of unit cell:	Completed after 0 iterations at t[s]:   8404.23
	FillingsUpdate:  mu: -0.171251800  nElectrons: 416.741076  magneticMoment: [ Abs: 0.00003  Tot: -0.00000 ]
	SubspaceRotationAdjust: set factor to 0.193
ElecMinimize: Iter:   9  G: -1359.061821610461948  |grad|_K:  2.824e-08  alpha:  3.739e-01  linmin: -1.535e-05  t[s]:   8445.30
	Linear fluid (dielectric constant: 78.4, screening length: 5.74355 Bohr) occupying 0.754838 of unit cell:	Completed after 0 iterations at t[s]:   8473.68
	Linear fluid (dielectric constant: 78.4, screening length: 5.74355 Bohr) occupying 0.754838 of unit cell:	Completed after 0 iterations at t[s]:   8500.99
	FillingsUpdate:  mu: -0.171251800  nElectrons: 416.740970  magneticMoment: [ Abs: 0.00002  Tot: -0.00000 ]
	SubspaceRotationAdjust: set factor to 0.275
ElecMinimize: Iter:  10  G: -1359.061821696093375  |grad|_K:  2.718e-08  alpha:  4.738e-01  linmin:  3.129e-06  t[s]:   8541.96
	Linear fluid (dielectric constant: 78.4, screening length: 5.74355 Bohr) occupying 0.754838 of unit cell:	Completed after 2 iterations at t[s]:   8570.72
	Linear fluid (dielectric constant: 78.4, screening length: 5.74355 Bohr) occupying 0.754838 of unit cell:	Completed after 0 iterations at t[s]:   8598.87
	FillingsUpdate:  mu: -0.171251800  nElectrons: 416.740830  magneticMoment: [ Abs: 0.00002  Tot: -0.00000 ]
	SubspaceRotationAdjust: set factor to 0.225
ElecMinimize: Iter:  11  G: -1359.061821701070585  |grad|_K:  4.084e-08  alpha:  1.381e-01  linmin:  5.301e-05  t[s]:   8640.16
	Linear fluid (dielectric constant: 78.4, screening length: 5.74355 Bohr) occupying 0.754838 of unit cell:	Completed after 0 iterations at t[s]:   8668.33
	Linear fluid (dielectric constant: 78.4, screening length: 5.74355 Bohr) occupying 0.754838 of unit cell:	Completed after 0 iterations at t[s]:   8695.45
	FillingsUpdate:  mu: -0.171251800  nElectrons: 416.740815  magneticMoment: [ Abs: 0.00002  Tot: -0.00000 ]
	SubspaceRotationAdjust: set factor to 0.185
ElecMinimize: Iter:  12  G: -1359.061821705426610  |grad|_K:  3.690e-08  alpha:  4.472e-02  linmin:  1.697e-08  t[s]:   8736.79
ElecMinimize: Converged (|Delta G|<1.000000e-08 for 2 iters).
Setting wave functions to eigenvectors of Hamiltonian

# Ionic positions in lattice coordinates:
ion W   0.083482796706550   0.165928549274134   0.501176367215902 1
ion W   0.333269061404707   0.165575384242270   0.500721229168599 1
ion W   0.583173106126134   0.165765749169231   0.500345119273530 1
ion W   0.833237435987940   0.165774251891580   0.500579061112296 1
ion W   0.084198189226275   0.416762104329790   0.500532133250828 1
ion W   0.334068137872053   0.415975984294826   0.502905444696486 1
ion W   0.583525956386920   0.415646192319143   0.501210649781813 1
ion W   0.833351287662934   0.415884531549783   0.500336715296747 1
ion W   0.082771282732055   0.665824685471525   0.499594700131503 1
ion W   0.331724475744629   0.667356512053943   0.497223220154064 1
ion W   0.583163896434880   0.665145562398371   0.502913898620129 1
ion W   0.833590503395271   0.665837867272422   0.500681457953855 1
ion W   0.083155380302376   0.915988495135217   0.500356848361961 1
ion W   0.333202017840821   0.916329126281922   0.499585868271024 1
ion W   0.582268690630925   0.914926028873755   0.500452127701545 1
ion W   0.833173573424228   0.915648996919301   0.501101488691802 1
ion S   0.166707173564323   0.083170096261906   0.413905413428781 1
ion S   0.166582546448321   0.081948204816283   0.587642804323807 1
ion S   0.416720781818474   0.083549804203539   0.413271053271016 1
ion S   0.416630049806955   0.081726306099610   0.587118677761251 1
ion S   0.666588450551777   0.082080960384996   0.413748754999424 1
ion S   0.666067597808024   0.082043507041109   0.587099028044910 1
ion S   0.916856215003129   0.082323081639410   0.414221376714861 1
ion S   0.916388871882887   0.082653167302869   0.587639311560931 1
ion S   0.167924459396178   0.332938699859859   0.414784418848756 1
ion S   0.165344084774191   0.332167984153471   0.588295103884156 1
ion S   0.416434062496947   0.333473125475074   0.414718616613463 1
ion S   0.417153408832921   0.330989072661554   0.588277237233608 1
ion S   0.666371711194048   0.332673478616444   0.413755021117798 1
ion S   0.667180622556912   0.331993234486420   0.587467836066266 1
ion S   0.917029480276240   0.332387577451155   0.413786262673797 1
ion S   0.917008990549323   0.332891189868939   0.587120260768217 1
ion S   0.165031571085755   0.582090669384758   0.411987906416203 1
ion S   0.168076735818969   0.584091246044341   0.586177973930842 1
ion S   0.417283791450736   0.581780634455903   0.415588136801316 1
ion S   0.421886302026525   0.577279757606628   0.595523077051764 1
ion S   0.665675142574906   0.582766584607293   0.414753046696602 1
ion S   0.668211786517876   0.582065936512536   0.588285867837583 1
ion S   0.915582725731250   0.582302692821785   0.413247766645893 1
ion S   0.917355061827182   0.582463928937626   0.587104539867856 1
ion S   0.166045558061889   0.832938975207547   0.412954180109074 1
ion S   0.166720517040082   0.832366697239260   0.586463110314223 1
ion S   0.416811604674404   0.834043445963484   0.411947173149385 1
ion S   0.415017038158587   0.831036055789742   0.586137731599552 1
ion S   0.666085830998131   0.831179263126687   0.414711120105058 1
ion S   0.667035872244177   0.833989742236916   0.588234141008741 1
ion S   0.916030510801921   0.832456282760782   0.413884870755629 1
ion S   0.917081527060716   0.832453135683751   0.587581920113221 1
ion H   0.468733918087581   0.529804937821131   0.649460324603907 1


# Forces in Lattice coordinates:
force W  -0.002383774213560   0.004859565217733  -0.008934264883786 1
force W  -0.004578704948232  -0.001614255323352  -0.002244051960861 1
force W  -0.000295975235410   0.001287908565240  -0.004763421744486 1
force W   0.002746367733518  -0.001909392298304  -0.002207219170385 1
force W   0.013479318747016  -0.007868506887666  -0.005462707817704 1
force W  -0.009773251798218  -0.017513157431777  -0.031178198185199 1
force W   0.003362442200866  -0.003567534309021  -0.014775581932853 1
force W  -0.001155952570159   0.000025570647904  -0.003373831147319 1
force W  -0.001318795269444   0.005926155632660   0.009976526618361 1
force W   0.019594776194630  -0.019036431082397   0.126899278828602 1
force W   0.018369082655111   0.005636538528101  -0.030118537704845 1
force W  -0.001343514781541   0.006317268419781  -0.000593044994432 1
force W  -0.003034862979106   0.000877250993377  -0.001888979506354 1
force W  -0.003176653507712  -0.001298718065835   0.010908107381028 1
force W   0.008168791022967  -0.014568134971070  -0.002169114299160 1
force W  -0.003805915115630   0.001519410362062  -0.005478489937300 1
force S  -0.001440487306375  -0.001311726576579  -0.025132558270563 1
force S  -0.001324751970723   0.002498687394388   0.018960248793859 1
force S   0.002163868817933  -0.004084892221392  -0.022233699608185 1
force S  -0.003399391149899   0.004646823983988   0.016738865772858 1
force S   0.001101909316449   0.001650119615806  -0.022078439809396 1
force S  -0.001155298558368  -0.001477832796115   0.026014099516790 1
force S  -0.003966250072109   0.003393883923753  -0.026108825499273 1
force S   0.003199546794251  -0.003369799732556   0.025197202746345 1
force S   0.003417754040138  -0.000757781327116  -0.025661071985523 1
force S  -0.002294233684368  -0.004727720639015   0.019107386573711 1
force S   0.001101787926436  -0.003665751745336  -0.022946993990000 1
force S   0.003286051453966  -0.004255269936466   0.023583135730709 1
force S   0.002221175954661   0.000336715620272  -0.026997274542248 1
force S  -0.001763433667728   0.000138089796440   0.022943261493777 1
force S  -0.002127699966838   0.002485616460925  -0.022833230611376 1
force S  -0.000704160091210   0.004413096674327   0.025863430882885 1
force S   0.014431421482295   0.010411096796458  -0.020228117749074 1
force S  -0.018799215777549   0.006883380936114   0.013954171409415 1
force S  -0.002538602492685   0.005233164674753  -0.017622860682787 1
force S   0.070511345299761  -0.071599627867637  -0.031115872393907 1
force S   0.003163258485389  -0.002727230406157  -0.029328245723091 1
force S   0.003476925176672  -0.003476839410798   0.018812200989252 1
force S   0.003424310908540  -0.001441097339103  -0.021618776485053 1
force S  -0.002026655265596   0.000199659545348   0.016791044617897 1
force S   0.002646819643566  -0.000490609365733  -0.018833635673912 1
force S  -0.005702390142893   0.004661732308794   0.030649675935218 1
force S  -0.005371685108866  -0.018316168124267  -0.018229920209546 1
force S  -0.009035586306788   0.020027742429098   0.014953014567425 1
force S   0.003221873695672  -0.003144512750923  -0.023215412843017 1
force S   0.002696777835310  -0.002505769589080   0.019964459470031 1
force S  -0.000239044020689   0.000286376704523  -0.027863384940263 1
force S  -0.001174070274687   0.004966527231220   0.020617677069091 1
force H  -0.091091137306835   0.093112112199862  -0.037959792473326 1

# Energy components:
   A_diel =        0.0251309034663721
   Eewald =     8774.5368355173286545
       EH =     9921.3710076691077120
     Eloc =   -20210.3907514163438464
      Enl =     -179.1671533634580840
      Exc =     -465.7926421470280616
 Exc_core =      230.1593469086911341
       KE =      498.8335307121479332
  MuShift =        0.0031343408800562
-------------------------------------
     Etot =    -1430.4215608752060689
       TS =        0.0078755437371892
-------------------------------------
        F =    -1430.4294364189431690
      muN =      -71.3676147135166730
-------------------------------------
        G =    -1359.0618217054266097

IonicMinimize: Iter:   1  G: -1359.061821705426610  |grad|_K:  6.946e-04  alpha:  1.000e+00  linmin: -9.850e-01  t[s]:   8755.48

#--- Lowdin population analysis ---
# oxidation-state W -0.532 -0.532 -0.532 -0.534 -0.533 -0.544 -0.536 -0.532 -0.531 -0.536 -0.544 -0.532 -0.532 -0.531 -0.533 -0.532
# magnetic-moments W +0.000 -0.000 +0.000 -0.000 -0.000 -0.000 -0.000 +0.000 -0.000 -0.000 -0.000 -0.000 -0.000 +0.000 -0.000 -0.000
# oxidation-state S +0.339 +0.338 +0.340 +0.341 +0.337 +0.338 +0.340 +0.340 +0.339 +0.337 +0.341 +0.332 +0.339 +0.339 +0.337 +0.338 +0.350 +0.338 +0.350 +0.375 +0.342 +0.332 +0.340 +0.341 +0.337 +0.341 +0.350 +0.338 +0.339 +0.337 +0.339 +0.338
# magnetic-moments S +0.000 +0.000 +0.000 +0.000 +0.000 +0.000 +0.000 +0.000 -0.000 -0.000 +0.000 +0.000 +0.000 +0.000 +0.000 +0.000 -0.000 -0.000 -0.000 -0.000 +0.000 +0.000 -0.000 +0.000 +0.000 +0.000 -0.000 -0.000 -0.000 -0.000 +0.000 +0.000
# oxidation-state H +0.124
# magnetic-moments H -0.000

Shifting auxilliary hamiltonian by 0.000097 to set nElectrons=416.740815
	Linear fluid (dielectric constant: 78.4, screening length: 5.74355 Bohr) occupying 0.754838 of unit cell:	Completed after 17 iterations at t[s]:   8786.14

-------- Electronic minimization -----------
	Linear fluid (dielectric constant: 78.4, screening length: 5.74355 Bohr) occupying 0.754838 of unit cell:	Completed after 0 iterations at t[s]:   8810.65
	FillingsUpdate:  mu: -0.171251800  nElectrons: 416.740815  magneticMoment: [ Abs: 0.00012  Tot: -0.00000 ]
ElecMinimize: Iter:   0  G: -1359.033827923320814  |grad|_K:  1.415e-05  alpha:  1.000e+00
	Linear fluid (dielectric constant: 78.4, screening length: 5.74355 Bohr) occupying 0.754824 of unit cell:	Completed after 17 iterations at t[s]:   8885.78
	Linear fluid (dielectric constant: 78.4, screening length: 5.74355 Bohr) occupying 0.754833 of unit cell:	Completed after 18 iterations at t[s]:   8919.10
	FillingsUpdate:  mu: -0.171251800  nElectrons: 416.693392  magneticMoment: [ Abs: 0.00053  Tot: -0.00000 ]
	SubspaceRotationAdjust: set factor to 0.275
ElecMinimize: Iter:   1  G: -1359.056043739386951  |grad|_K:  3.735e-06  alpha:  4.509e-01  linmin:  1.938e-04  t[s]:   8964.68
	Linear fluid (dielectric constant: 78.4, screening length: 5.74355 Bohr) occupying 0.754834 of unit cell:	Completed after 9 iterations at t[s]:   8994.45
	Linear fluid (dielectric constant: 78.4, screening length: 5.74355 Bohr) occupying 0.754834 of unit cell:	Completed after 8 iterations at t[s]:   9024.80
	FillingsUpdate:  mu: -0.171251800  nElectrons: 416.703013  magneticMoment: [ Abs: 0.00074  Tot: -0.00000 ]
	SubspaceRotationAdjust: set factor to 0.328
ElecMinimize: Iter:   2  G: -1359.058453624374579  |grad|_K:  3.081e-06  alpha:  7.004e-01  linmin: -2.838e-05  t[s]:   9067.86
	Linear fluid (dielectric constant: 78.4, screening length: 5.74355 Bohr) occupying 0.754834 of unit cell:	Completed after 14 iterations at t[s]:   9098.32
	Linear fluid (dielectric constant: 78.4, screening length: 5.74355 Bohr) occupying 0.754834 of unit cell:	Completed after 8 iterations at t[s]:   9129.68
	FillingsUpdate:  mu: -0.171251800  nElectrons: 416.680483  magneticMoment: [ Abs: 0.00080  Tot: -0.00000 ]
	SubspaceRotationAdjust: set factor to 0.41
ElecMinimize: Iter:   3  G: -1359.060388425648398  |grad|_K:  2.719e-06  alpha:  8.254e-01  linmin:  3.653e-05  t[s]:   9172.99
	Linear fluid (dielectric constant: 78.4, screening length: 5.74355 Bohr) occupying 0.754844 of unit cell:	Completed after 14 iterations at t[s]:   9202.92
	Linear fluid (dielectric constant: 78.4, screening length: 5.74355 Bohr) occupying 0.754841 of unit cell:	Completed after 10 iterations at t[s]:   9235.29
	FillingsUpdate:  mu: -0.171251800  nElectrons: 416.710823  magneticMoment: [ Abs: 0.00066  Tot: -0.00000 ]
	SubspaceRotationAdjust: set factor to 0.416
ElecMinimize: Iter:   4  G: -1359.061465175358080  |grad|_K:  1.835e-06  alpha:  5.955e-01  linmin: -8.111e-06  t[s]:   9278.76
	Linear fluid (dielectric constant: 78.4, screening length: 5.74355 Bohr) occupying 0.754836 of unit cell:	Completed after 12 iterations at t[s]:   9308.24
	Linear fluid (dielectric constant: 78.4, screening length: 5.74355 Bohr) occupying 0.754837 of unit cell:	Completed after 6 iterations at t[s]:   9339.25
	FillingsUpdate:  mu: -0.171251800  nElectrons: 416.695631  magneticMoment: [ Abs: 0.00051  Tot: -0.00000 ]
	SubspaceRotationAdjust: set factor to 0.325
ElecMinimize: Iter:   5  G: -1359.061846010028376  |grad|_K:  1.252e-06  alpha:  4.567e-01  linmin:  1.648e-05  t[s]:   9382.45
	Linear fluid (dielectric constant: 78.4, screening length: 5.74355 Bohr) occupying 0.754833 of unit cell:	Completed after 14 iterations at t[s]:   9412.28
	Linear fluid (dielectric constant: 78.4, screening length: 5.74355 Bohr) occupying 0.754833 of unit cell:	Completed after 4 iterations at t[s]:   9443.72
[...]
# magnetic-moments H -0.000

Shifting auxilliary hamiltonian by 0.000010 to set nElectrons=416.051435
	Linear fluid (dielectric constant: 78.4, screening length: 5.74355 Bohr) occupying 0.756257 of unit cell:	Completed after 6 iterations at t[s]:  86386.05

-------- Electronic minimization -----------
	Linear fluid (dielectric constant: 78.4, screening length: 5.74355 Bohr) occupying 0.756257 of unit cell:	Completed after 0 iterations at t[s]:  86408.71
	FillingsUpdate:  mu: -0.171251800  nElectrons: 416.051435  magneticMoment: [ Abs: 0.00006  Tot: +0.00000 ]
ElecMinimize: Iter:   0  G: -1359.073365660891341  |grad|_K:  2.234e-07  alpha:  1.000e+00
	Linear fluid (dielectric constant: 78.4, screening length: 5.74355 Bohr) occupying 0.756257 of unit cell:	Completed after 6 iterations at t[s]:  86482.73
	Linear fluid (dielectric constant: 78.4, screening length: 5.74355 Bohr) occupying 0.756257 of unit cell:	Completed after 4 iterations at t[s]:  86512.70
	FillingsUpdate:  mu: -0.171251800  nElectrons: 416.051260  magneticMoment: [ Abs: 0.00006  Tot: -0.00000 ]
	SubspaceRotationAdjust: set factor to 0.255
ElecMinimize: Iter:   1  G: -1359.073371595032540  |grad|_K:  1.088e-07  alpha:  4.695e-01  linmin:  3.609e-04  t[s]:  86554.80
	Linear fluid (dielectric constant: 78.4, screening length: 5.74355 Bohr) occupying 0.756258 of unit cell:	Completed after 3 iterations at t[s]:  86583.47
	Linear fluid (dielectric constant: 78.4, screening length: 5.74355 Bohr) occupying 0.756258 of unit cell:	Completed after 0 iterations at t[s]:  86611.96
	FillingsUpdate:  mu: -0.171251800  nElectrons: 416.051348  magneticMoment: [ Abs: 0.00005  Tot: -0.00000 ]
	SubspaceRotationAdjust: set factor to 0.284
ElecMinimize: Iter:   2  G: -1359.073373802269316  |grad|_K:  6.647e-08  alpha:  7.101e-01  linmin: -4.380e-03  t[s]:  86653.28
	Linear fluid (dielectric constant: 78.4, screening length: 5.74355 Bohr) occupying 0.756258 of unit cell:	Completed after 2 iterations at t[s]:  86681.67
	Linear fluid (dielectric constant: 78.4, screening length: 5.74355 Bohr) occupying 0.756258 of unit cell:	Completed after 0 iterations at t[s]:  86709.92
	FillingsUpdate:  mu: -0.171251800  nElectrons: 416.051446  magneticMoment: [ Abs: 0.00004  Tot: -0.00000 ]
	SubspaceRotationAdjust: set factor to 0.249
ElecMinimize: Iter:   3  G: -1359.073374716881972  |grad|_K:  6.952e-08  alpha:  7.156e-01  linmin: -2.147e-03  t[s]:  86750.92
	Linear fluid (dielectric constant: 78.4, screening length: 5.74355 Bohr) occupying 0.756258 of unit cell:	Completed after 3 iterations at t[s]:  86779.62
	Linear fluid (dielectric constant: 78.4, screening length: 5.74355 Bohr) occupying 0.756258 of unit cell:	Completed after 0 iterations at t[s]:  86808.25
	FillingsUpdate:  mu: -0.171251800  nElectrons: 416.051487  magneticMoment: [ Abs: 0.00002  Tot: -0.00000 ]
	SubspaceRotationAdjust: set factor to 0.281
ElecMinimize: Iter:   4  G: -1359.073375524141056  |grad|_K:  4.824e-08  alpha:  5.699e-01  linmin:  4.863e-04  t[s]:  86849.59
	Linear fluid (dielectric constant: 78.4, screening length: 5.74355 Bohr) occupying 0.756258 of unit cell:	Completed after 0 iterations at t[s]:  86877.63
	Linear fluid (dielectric constant: 78.4, screening length: 5.74355 Bohr) occupying 0.756258 of unit cell:	Completed after 0 iterations at t[s]:  86904.95
	FillingsUpdate:  mu: -0.171251800  nElectrons: 416.051495  magneticMoment: [ Abs: 0.00001  Tot: -0.00000 ]
	SubspaceRotationAdjust: set factor to 0.307
ElecMinimize: Iter:   5  G: -1359.073375828591224  |grad|_K:  2.982e-08  alpha:  5.627e-01  linmin: -6.042e-07  t[s]:  86946.04
	Linear fluid (dielectric constant: 78.4, screening length: 5.74355 Bohr) occupying 0.756258 of unit cell:	Completed after 2 iterations at t[s]:  86974.99
	Linear fluid (dielectric constant: 78.4, screening length: 5.74355 Bohr) occupying 0.756258 of unit cell:	Completed after 0 iterations at t[s]:  87002.54
	FillingsUpdate:  mu: -0.171251800  nElectrons: 416.051488  magneticMoment: [ Abs: 0.00001  Tot: -0.00000 ]
	SubspaceRotationAdjust: set factor to 0.307
ElecMinimize: Iter:   6  G: -1359.073375854604365  |grad|_K:  2.064e-08  alpha:  2.783e-01  linmin: -7.850e-04  t[s]:  87043.92
	Linear fluid (dielectric constant: 78.4, screening length: 5.74355 Bohr) occupying 0.756258 of unit cell:	Completed after 0 iterations at t[s]:  87071.88
	Linear fluid (dielectric constant: 78.4, screening length: 5.74355 Bohr) occupying 0.756258 of unit cell:	Completed after 0 iterations at t[s]:  87099.20
	FillingsUpdate:  mu: -0.171251800  nElectrons: 416.051489  magneticMoment: [ Abs: 0.00001  Tot: -0.00000 ]
	SubspaceRotationAdjust: set factor to 0.355
ElecMinimize: Iter:   7  G: -1359.073375893054617  |grad|_K:  1.578e-08  alpha:  3.466e-01  linmin: -9.466e-06  t[s]:  87140.56
	Linear fluid (dielectric constant: 78.4, screening length: 5.74355 Bohr) occupying 0.756258 of unit cell:	Completed after 0 iterations at t[s]:  87168.74
	Linear fluid (dielectric constant: 78.4, screening length: 5.74355 Bohr) occupying 0.756258 of unit cell:	Completed after 0 iterations at t[s]:  87196.22
	FillingsUpdate:  mu: -0.171251800  nElectrons: 416.051495  magneticMoment: [ Abs: 0.00000  Tot: -0.00000 ]
	SubspaceRotationAdjust: set factor to 0.422
ElecMinimize: Iter:   8  G: -1359.073375920337867  |grad|_K:  1.357e-08  alpha:  4.435e-01  linmin:  1.572e-05  t[s]:  87237.47
	Linear fluid (dielectric constant: 78.4, screening length: 5.74355 Bohr) occupying 0.756258 of unit cell:	Completed after 2 iterations at t[s]:  87266.18
	Linear fluid (dielectric constant: 78.4, screening length: 5.74355 Bohr) occupying 0.756258 of unit cell:	Completed after 0 iterations at t[s]:  87294.15
ElecMinimize: 	Step increased G by 3.237210e-08, reducing alpha to 7.190441e-03.
	Linear fluid (dielectric constant: 78.4, screening length: 5.74355 Bohr) occupying 0.756258 of unit cell:	Completed after 0 iterations at t[s]:  87358.18
ElecMinimize: 	Step increased G by 2.668526e-08, reducing alpha to 7.190441e-04.
	Linear fluid (dielectric constant: 78.4, screening length: 5.74355 Bohr) occupying 0.756258 of unit cell:	Completed after 0 iterations at t[s]:  87422.73
ElecMinimize: 	Step increased G by 2.617548e-08, reducing alpha to 7.190441e-05.
ElecMinimize: 	Step failed to reduce G after 3 attempts. Quitting step.
ElecMinimize: 	Undoing step.
	Linear fluid (dielectric constant: 78.4, screening length: 5.74355 Bohr) occupying 0.756258 of unit cell:	Completed after 0 iterations at t[s]:  87487.18
ElecMinimize: 	Step failed: resetting search direction.
	FillingsUpdate:  mu: -0.171251800  nElectrons: 416.051495  magneticMoment: [ Abs: 0.00000  Tot: -0.00000 ]
	SubspaceRotationAdjust: set factor to 0.381
ElecMinimize: Iter:   9  G: -1359.073375894175342  |grad|_K:  2.533e-08  alpha:  7.190e-05
	Linear fluid (dielectric constant: 78.4, screening length: 5.74355 Bohr) occupying 0.756258 of unit cell:	Completed after 2 iterations at t[s]:  87556.60
	Linear fluid (dielectric constant: 78.4, screening length: 5.74355 Bohr) occupying 0.756258 of unit cell:	Completed after 0 iterations at t[s]:  87584.57
	FillingsUpdate:  mu: -0.171251800  nElectrons: 416.051484  magneticMoment: [ Abs: 0.00000  Tot: -0.00000 ]
	SubspaceRotationAdjust: set factor to 0.192
ElecMinimize: Iter:  10  G: -1359.073375908150183  |grad|_K:  1.413e-08  alpha:  2.078e-01  linmin:  8.207e-03  t[s]:  87625.92
	Linear fluid (dielectric constant: 78.4, screening length: 5.74355 Bohr) occupying 0.756258 of unit cell:	Completed after 0 iterations at t[s]:  87654.65
	Linear fluid (dielectric constant: 78.4, screening length: 5.74355 Bohr) occupying 0.756258 of unit cell:	Completed after 0 iterations at t[s]:  87682.25
	FillingsUpdate:  mu: -0.171251800  nElectrons: 416.051471  magneticMoment: [ Abs: 0.00000  Tot: -0.00000 ]
	SubspaceRotationAdjust: set factor to 0.301
ElecMinimize: Iter:  11  G: -1359.073375930445991  |grad|_K:  1.325e-08  alpha:  6.118e-01  linmin: -3.472e-05  t[s]:  87723.20
	Linear fluid (dielectric constant: 78.4, screening length: 5.74355 Bohr) occupying 0.756258 of unit cell:	Completed after 2 iterations at t[s]:  87751.65
	Linear fluid (dielectric constant: 78.4, screening length: 5.74355 Bohr) occupying 0.756258 of unit cell:	Completed after 0 iterations at t[s]:  87779.45
ElecMinimize: 	Step increased G by 1.271042e-08, reducing alpha to 9.841181e-03.
	Linear fluid (dielectric constant: 78.4, screening length: 5.74355 Bohr) occupying 0.756258 of unit cell:	Completed after 0 iterations at t[s]:  87843.61
	FillingsUpdate:  mu: -0.171251800  nElectrons: 416.051470  magneticMoment: [ Abs: 0.00000  Tot: -0.00000 ]
	SubspaceRotationAdjust: set factor to 0.239
ElecMinimize: Iter:  12  G: -1359.073375933044872  |grad|_K:  3.088e-08  alpha:  9.841e-03  linmin:  1.029e-02  t[s]:  87885.11
ElecMinimize: 	Bad step direction: g.d > 0.
ElecMinimize: 	Undoing step.
	Linear fluid (dielectric constant: 78.4, screening length: 5.74355 Bohr) occupying 0.756258 of unit cell:	Completed after 0 iterations at t[s]:  87913.61
ElecMinimize: 	Step failed: resetting search direction.
	FillingsUpdate:  mu: -0.171251800  nElectrons: 416.051470  magneticMoment: [ Abs: 0.00000  Tot: -0.00000 ]
	SubspaceRotationAdjust: set factor to 0.208
ElecMinimize: Iter:  13  G: -1359.073375933044872  |grad|_K:  2.880e-08  alpha:  0.000e+00
	Linear fluid (dielectric constant: 78.4, screening length: 5.74355 Bohr) occupying 0.756258 of unit cell:	Completed after 0 iterations at t[s]:  87982.79
ElecMinimize: 	Predicted alpha/alphaT>3.000000, increasing alphaT to 2.952354e-02.
	Linear fluid (dielectric constant: 78.4, screening length: 5.74355 Bohr) occupying 0.756258 of unit cell:	Completed after 0 iterations at t[s]:  88009.61
ElecMinimize: 	Predicted alpha/alphaT>3.000000, increasing alphaT to 8.857063e-02.
	Linear fluid (dielectric constant: 78.4, screening length: 5.74355 Bohr) occupying 0.756258 of unit cell:	Completed after 0 iterations at t[s]:  88036.70
ElecMinimize: 	Predicted alpha/alphaT>3.000000, increasing alphaT to 2.657119e-01.
	Linear fluid (dielectric constant: 78.4, screening length: 5.74355 Bohr) occupying 0.756258 of unit cell:	Completed after 3 iterations at t[s]:  88064.51
ElecMinimize: 	Step increased G by 7.259378e-07, reducing alpha to 1.278800e-01.
	Linear fluid (dielectric constant: 78.4, screening length: 5.74355 Bohr) occupying 0.756258 of unit cell:	Completed after 2 iterations at t[s]:  88129.72
ElecMinimize: 	Step increased G by 1.295825e-08, reducing alpha to 1.278800e-02.
	Linear fluid (dielectric constant: 78.4, screening length: 5.74355 Bohr) occupying 0.756258 of unit cell:	Completed after 0 iterations at t[s]:  88194.81
ElecMinimize: 	Step increased G by 1.433841e-08, reducing alpha to 1.278800e-03.
ElecMinimize: 	Step failed to reduce G after 3 attempts. Quitting step.
ElecMinimize: 	Undoing step.
	Linear fluid (dielectric constant: 78.4, screening length: 5.74355 Bohr) occupying 0.756258 of unit cell:	Completed after 0 iterations at t[s]:  88258.60
ElecMinimize: 	Step failed along negative gradient direction.
ElecMinimize: Probably at roundoff error limit. (Stopping)
Setting wave functions to eigenvectors of Hamiltonian

# Ionic positions in lattice coordinates:
ion W   0.084121496945402   0.164210628730757   0.500563172306334 1
ion W   0.334528948661963   0.164370160255841   0.500568078912834 1
ion W   0.584366932594652   0.164685610817267   0.500370958755353 1
ion W   0.834540170002733   0.164532670509086   0.500395852381110 1
ion W   0.084440564985714   0.414654579459989   0.500627719090927 1
ion W   0.332143358684557   0.410190314459302   0.501299390062292 1
ion W   0.584367701432522   0.414751201445022   0.500616478779989 1
ion W   0.834404053588738   0.414699911623114   0.500376326806058 1
ion W   0.083936267483662   0.664617836510125   0.500572480627751 1
ion W   0.332096986223973   0.666988632688454   0.501336216343725 1
ion W   0.588921677874238   0.666974475591378   0.501267633771239 1
ion W   0.834745009687974   0.664569282282811   0.500541479330071 1
ion W   0.084471329842078   0.914619052236210   0.500494457356937 1
ion W   0.334441040863166   0.915148006228225   0.500571273010194 1
ion W   0.584408368263775   0.914648616422340   0.500599867130978 1
ion W   0.834877591485877   0.914977407292234   0.500538484184803 1
ion S   0.167815760207318   0.081190511665111   0.413561420736507 1
ion S   0.167649021453827   0.080873394660901   0.587488253092299 1
ion S   0.417712906905091   0.081342410096451   0.413447546220089 1
ion S   0.418012874769652   0.081507481583581   0.587468988569261 1
ion S   0.667765847448497   0.081198133486687   0.413552485379079 1
ion S   0.667966565677920   0.081656614261937   0.587314860232934 1
ion S   0.917916737114493   0.081204119553782   0.413460535456183 1
ion S   0.917774674079736   0.081290512378006   0.587455234757643 1
ion S   0.167449269486312   0.330811572670444   0.413590347912141 1
ion S   0.165591365076576   0.329547176158245   0.587967397690203 1
ion S   0.417527021986399   0.330914513687543   0.413588619316795 1
ion S   0.418143403112699   0.329684033839542   0.587961131234263 1
ion S   0.667642838995366   0.331447951322264   0.413564499643824 1
ion S   0.667877744338194   0.331210051825507   0.587285051898211 1
ion S   0.917906439345838   0.331308141524106   0.413565326044107 1
ion S   0.917413466198514   0.331085771054086   0.587329433239650 1
ion S   0.167431738477464   0.581527087893446   0.413622613661953 1
ion S   0.165477263141355   0.580893416954793   0.588019677069422 1
ion S   0.417665055389739   0.581411704161909   0.416706572806095 1
ion S   0.417729659542906   0.581412698741033   0.582801572618484 1
ion S   0.668201897085465   0.581574462573276   0.413566607023588 1
ion S   0.669453716877654   0.581002689817470   0.587939620097637 1
ion S   0.917757102717226   0.581338095336341   0.413440240890629 1
ion S   0.917572128660935   0.581067555777040   0.587462709559255 1
ion S   0.167733691212865   0.831323902796285   0.413539547395065 1
ion S   0.167571738909359   0.831491243778580   0.587523767706096 1
ion S   0.417509792622747   0.831643744453224   0.413612420612492 1
ion S   0.418184586449107   0.833613106131436   0.588006322063927 1
ion S   0.668276072501468   0.831664767737746   0.413559483916397 1
ion S   0.669541833431052   0.833520103255636   0.587932283054640 1
ion S   0.917923906615370   0.831295927918742   0.413541004937411 1
ion S   0.918198556769515   0.831433812611045   0.587470122176229 1
ion H   0.417803617778352   0.581364401741675   0.658524828136871 1


# Forces in Lattice coordinates:
force W  -0.001972084685672   0.005259455080886  -0.000466264054197 1
force W  -0.002684294573015  -0.001181746155504  -0.001632886323837 1
force W   0.001167471400572  -0.006085627835940  -0.000146389657798 1
force W  -0.000635655040907   0.000822983202354  -0.001471937859745 1
force W   0.003887167291103   0.000546370809647   0.002834692329385 1
force W  -0.000804572112052   0.001548464665520  -0.006010826540365 1
force W  -0.003190206570210   0.002890756049006  -0.004992787767803 1
force W   0.005711324221574  -0.000559827855530  -0.000492912263801 1
force W   0.007618359588139  -0.003279736733048   0.002524100674766 1
force W   0.000720729261215  -0.000895784217050   0.000612847916140 1
force W  -0.001614808911384   0.000091585067241  -0.004257364692145 1
force W   0.000758004360404   0.002729896790266  -0.000579421221553 1
force W   0.002074766224132  -0.002288573053084  -0.002291372780331 1
force W   0.003921581095506  -0.007910347835533   0.002540737022154 1
force W  -0.000139354734052  -0.003962187009696   0.003726913841503 1
force W  -0.004770555842236   0.001512652416783   0.000122368042230 1
force S  -0.000809344976480   0.001722498222878  -0.004992001601480 1
force S  -0.000477434521045   0.000990122417995   0.000206486195824 1
force S  -0.000466519042777   0.000885906356017  -0.003373123926635 1
force S  -0.000298557859388   0.000154628671108  -0.001273663766407 1
force S  -0.001747049797472   0.001421116896852  -0.003069995912140 1
force S  -0.000708631357397   0.001008447483124  -0.002389438955558 1
force S  -0.000797310796974   0.000647261352343  -0.005683862633543 1
force S  -0.002172053985924   0.002146861184106   0.000159664430154 1
force S   0.001385264718810  -0.001495303746223  -0.000188607104107 1
force S   0.001384074980623  -0.001439899990679  -0.002886520581438 1
force S   0.002763653119429  -0.001858633813611  -0.001862898285970 1
force S   0.002289265184437  -0.002627437073550  -0.000094276154799 1
force S   0.000378291722839  -0.000363981626433  -0.007347588819334 1
force S   0.001113445355796  -0.001137634739302   0.005084385388886 1
force S  -0.001659573363027   0.001938465757258  -0.003332085063123 1
force S  -0.001336994485577   0.001061654237990  -0.002672366097070 1
force S  -0.000835751815243  -0.000466605231974  -0.002838073648204 1
force S   0.002759645042942  -0.000526995002785  -0.009099743324423 1
force S   0.003085509414869  -0.002980856866700  -0.000915070488627 1
force S   0.002471581885085  -0.002682413008182   0.007715812808590 1
force S   0.001392435281672  -0.002801466257878  -0.001632596272744 1
force S   0.002203742432164  -0.002509613950996  -0.000132066978471 1
force S  -0.001198077019271   0.000955877283316  -0.003341024724982 1
force S  -0.000043435467435   0.000240681864773  -0.001430536586090 1
force S  -0.001583002915199   0.001920755567925  -0.000400243660879 1
force S  -0.001766676282949   0.001921309169075  -0.005800662462296 1
force S   0.001001258501649   0.000584887825624  -0.002852570757410 1
force S   0.000691237811595  -0.002724834938983  -0.008741898346397 1
force S   0.001694938550209  -0.001711022547041  -0.000221324564605 1
force S   0.001496289336386  -0.001783197002427  -0.002077394197355 1
force S  -0.001752214120962   0.000596479460610  -0.004609911194615 1
force S  -0.000827898086406   0.000653390643711   0.000015427750943 1
force H  -0.000225442303566   0.000300251654078  -0.005522849973476 1

# Energy components:
   A_diel =        0.0451034686221451
   Eewald =     8778.4449889414790960
       EH =     9900.8829667758891446
     Eloc =   -20193.7430670930334600
      Enl =     -179.1773607648638915
      Exc =     -465.6296562672899313
 Exc_core =      230.1593471678606306
       KE =      498.6847184188812889
  MuShift =        0.0114706309080087
-------------------------------------
     Etot =    -1430.3214887215442559
       TS =        0.0014504168891250
-------------------------------------
        F =    -1430.3229391384334122
      muN =      -71.2495632197473583
-------------------------------------
        G =    -1359.0733759186859970

IonicMinimize: Iter:  26  G: -1359.073375918685997  |grad|_K:  9.237e-05  alpha:  1.000e+00  linmin: -1.713e-02  t[s]:  88318.52
IonicMinimize: Converged (|grad|_K<1.000000e-04).

#--- Lowdin population analysis ---
# oxidation-state W -0.525 -0.525 -0.529 -0.529 -0.531 -0.558 -0.531 -0.529 -0.525 -0.558 -0.558 -0.525 -0.527 -0.525 -0.531 -0.525
# magnetic-moments W +0.000 +0.000 +0.000 -0.000 +0.000 -0.000 +0.000 +0.000 -0.000 +0.000 +0.000 +0.000 -0.000 +0.000 +0.000 -0.000
# oxidation-state S +0.349 +0.350 +0.353 +0.354 +0.351 +0.350 +0.353 +0.353 +0.359 +0.351 +0.359 +0.352 +0.351 +0.351 +0.351 +0.350 +0.359 +0.351 +0.348 +0.536 +0.359 +0.352 +0.353 +0.354 +0.349 +0.349 +0.359 +0.351 +0.359 +0.351 +0.349 +0.350
# magnetic-moments S +0.000 -0.000 -0.000 -0.000 -0.000 -0.000 +0.000 -0.000 -0.000 -0.000 -0.000 +0.000 +0.000 +0.000 -0.000 -0.000 +0.000 +0.000 -0.000 +0.000 +0.000 +0.000 -0.000 -0.000 -0.000 -0.000 -0.000 -0.000 -0.000 +0.000 -0.000 +0.000
# oxidation-state H +0.271
# magnetic-moments H -0.000


Dumping 'NbTe2.fillings' ... done
Dumping 'NbTe2.wfns' ... done
Dumping 'NbTe2.fluidState' ... done
Dumping 'NbTe2.ionpos' ... done
Dumping 'NbTe2.eigenvals' ... done
End date and time: Tue Jan 12 12:37:35 2021  (Duration: 1-0:32:09.30)
Done!
