
*************** JDFTx 1.5.0  ***************

Start date and time: Thu Jan  7 11:34:54 2021
Executable jdftx_gpu with command-line: -i Charged.in -o Charged.out
Running on hosts (process indices):  amax (0-4)
Divided in process groups (process indices):  0 (0)  1 (1)  2 (2)  3 (3)  4 (4)
gpuInit: Found compatible cuda device 0 'Tesla K80'
gpuInit: Found compatible cuda device 1 'Tesla K80'
gpuInit: Found compatible cuda device 2 'Tesla K80'
gpuInit: Found compatible cuda device 3 'Tesla K80'
gpuInit: Found compatible cuda device 4 'Tesla K80'
gpuInit: Selected device 0
Resource initialization completed at t[s]:      2.73
Run totals: 5 processes, 24 threads, 5 GPUs


Input parsed successfully to the following command list (including defaults):

basis kpoint-dependent
cache-projectors no
coords-type Lattice
core-overlap-check none
coulomb-interaction Slab 001
coulomb-truncation-embed 0.5 0.5 0.5
davidson-band-ratio 1.1
dump End State
dump-name NbTe2.$VAR
elec-cutoff 20
elec-eigen-algo Davidson
elec-ex-corr gga-PBE
elec-initial-charge 1.000000
elec-initial-magnetization 5.000000 no
elec-smearing Gauss 0.0073499
electronic-minimize  \
	dirUpdateScheme      FletcherReeves \
	linminMethod         DirUpdateRecommended \
	nIterations          200 \
	history              15 \
	knormThreshold       0 \
	energyDiffThreshold  1e-08 \
	nEnergyDiff          2 \
	alphaTstart          1 \
	alphaTmin            1e-10 \
	updateTestStepSize   yes \
	alphaTreduceFactor   0.1 \
	alphaTincreaseFactor 3 \
	nAlphaAdjustMax      3 \
	wolfeEnergy          0.0001 \
	wolfeGradient        0.9 \
	fdTest               no
exchange-regularization WignerSeitzTruncated
fluid LinearPCM 298.000000 1.013250
fluid-anion F- 1 MeanFieldLJ \
	epsBulk 1 \
	pMol 0 \
	epsInf 1 \
	Pvap 0 \
	sigmaBulk 0 \
	Rvdw 2.24877 \
	Res 0 \
	tauNuc 343133
fluid-cation Na+ 1 MeanFieldLJ \
	epsBulk 1 \
	pMol 0 \
	epsInf 1 \
	Pvap 0 \
	sigmaBulk 0 \
	Rvdw 2.19208 \
	Res 0 \
	tauNuc 343133
fluid-ex-corr lda-TF lda-PZ
fluid-gummel-loop 10 1.000000e-05
fluid-minimize  \
	dirUpdateScheme      PolakRibiere \
	linminMethod         DirUpdateRecommended \
	nIterations          400 \
	history              15 \
	knormThreshold       1e-11 \
	energyDiffThreshold  0 \
	nEnergyDiff          2 \
	alphaTstart          1 \
	alphaTmin            1e-10 \
	updateTestStepSize   yes \
	alphaTreduceFactor   0.1 \
	alphaTincreaseFactor 3 \
	nAlphaAdjustMax      6 \
	wolfeEnergy          0.0001 \
	wolfeGradient        0.9 \
	fdTest               no
fluid-solvent H2O 55.338 ScalarEOS \
	epsBulk 78.4 \
	pMol 0.92466 \
	epsInf 1.77 \
	Pvap 1.06736e-10 \
	sigmaBulk 4.62e-05 \
	Rvdw 2.61727 \
	Res 1.42 \
	tauNuc 343133 \
	poleEl 15 7 1
forces-output-coords Positions
initial-state NbTe2.$VAR
ion Ta   0.166669984000002   0.083329999999997   0.500000000000000 1
ion Ta   0.416670001999996   0.083329999999997   0.500000000000000 1
ion Ta   0.666670019999998   0.083329999999997   0.500000000000000 1
ion Ta   0.916670037999999   0.083329999999997   0.500000000000000 1
ion Ta   0.166669994000003   0.333330001000000   0.500000000000000 1
ion Ta   0.416669994000003   0.333330001000000   0.500000000000000 1
ion Ta   0.666670011999997   0.333330001000000   0.500000000000000 1
ion Ta   0.916669994000003   0.333330001000000   0.500000000000000 1
ion Ta   0.166669994000003   0.583329982000002   0.500000000000000 1
ion Ta   0.416669994000003   0.583329982000002   0.500000000000000 1
ion Ta   0.666669994000003   0.583329982000002   0.500000000000000 1
ion Ta   0.916670011000001   0.583329982000002   0.500000000000000 1
ion Ta   0.166669992999999   0.833329962999997   0.500000000000000 1
ion Ta   0.416669992999999   0.833329962999997   0.500000000000000 1
ion Ta   0.666670011000001   0.833329962999997   0.500000000000000 1
ion Ta   0.916670029000002   0.833329962999997   0.500000000000000 1
ion S   0.000000000000000   0.000000000000000   0.586319975000002 1
ion S   0.000000000000000   0.000000000000000   0.413679999000003 1
ion S   0.250000000000000   0.000000000000000   0.586319975000002 1
ion S   0.250000000000000   0.000000000000000   0.413679999000003 1
ion S   0.500000000000000   0.000000000000000   0.586319975000002 1
ion S   0.500000000000000   0.000000000000000   0.413679999000003 1
ion S   0.749999981999999   0.000000000000000   0.586319975000002 1
ion S   0.749999981999999   0.000000000000000   0.413679999000003 1
ion S   0.000000000999996   0.250000002000000   0.586319975000002 1
ion S   0.000000000999996   0.250000002000000   0.413679999000003 1
ion S   0.250000000999996   0.250000002000000   0.586319975000002 1
ion S   0.250000000999996   0.250000002000000   0.413679999000003 1
ion S   0.499999991999999   0.250000002000000   0.586319975000002 1
ion S   0.499999991999999   0.250000002000000   0.413679999000003 1
ion S   0.750000010000001   0.250000002000000   0.586319975000002 1
ion S   0.750000010000001   0.250000002000000   0.413679999000003 1
ion S   0.000000002000000   0.500000002999997   0.586319975000002 1
ion S   0.000000002000000   0.500000002999997   0.413679999000003 1
ion S   0.250000002000000   0.500000002999997   0.586319975000002 1
ion S   0.250000002000000   0.500000002999997   0.413679999000003 1
ion S   0.500000002000000   0.500000002999997   0.586319975000002 1
ion S   0.500000002000000   0.500000002999997   0.413679999000003 1
ion S   0.749999965999997   0.500000002999997   0.586319975000002 1
ion S   0.749999965999997   0.500000002999997   0.413679999000003 1
ion S   0.000000022000002   0.750000026000002   0.586319975000002 1
ion S   0.000000022000002   0.750000026000002   0.413679999000003 1
ion S   0.250000022000002   0.750000026000002   0.586319975000002 1
ion S   0.250000022000002   0.750000026000002   0.413679999000003 1
ion S   0.500000022000002   0.750000026000002   0.586319975000002 1
ion S   0.500000022000002   0.750000026000002   0.413679999000003 1
ion S   0.750000004000000   0.750000026000002   0.586319975000002 1
ion S   0.750000004000000   0.750000026000002   0.413679999000003 1
ion-species GBRV/$ID_pbe.uspp
ion-width Ecut
ionic-minimize  \
	dirUpdateScheme      L-BFGS \
	linminMethod         DirUpdateRecommended \
	nIterations          500 \
	history              15 \
	knormThreshold       0.0001 \
	energyDiffThreshold  1e-06 \
	nEnergyDiff          2 \
	alphaTstart          1 \
	alphaTmin            1e-10 \
	updateTestStepSize   yes \
	alphaTreduceFactor   0.1 \
	alphaTincreaseFactor 3 \
	nAlphaAdjustMax      3 \
	wolfeEnergy          0.0001 \
	wolfeGradient        0.9 \
	fdTest               no
kpoint   0.000000000000   0.000000000000   0.000000000000  1.00000000000000
kpoint-folding 4 4 1 
latt-move-scale 1 1 1
latt-scale 1.88973 1.88973 1.88973 
lattice Triclinic 13.3213 13.3213 18.1305 90 90 120
lattice-minimize  \
	dirUpdateScheme      L-BFGS \
	linminMethod         DirUpdateRecommended \
	nIterations          0 \
	history              15 \
	knormThreshold       0 \
	energyDiffThreshold  1e-06 \
	nEnergyDiff          2 \
	alphaTstart          1 \
	alphaTmin            1e-10 \
	updateTestStepSize   yes \
	alphaTreduceFactor   0.1 \
	alphaTincreaseFactor 3 \
	nAlphaAdjustMax      3 \
	wolfeEnergy          0.0001 \
	wolfeGradient        0.9 \
	fdTest               no
lcao-params -1 1e-06 0.0073499
pcm-variant CANDLE
spintype z-spin
subspace-rotation-factor 1 yes
symmetries automatic
symmetry-threshold 0.0001



---------- Setting up symmetries ----------

Found 24 point-group symmetries of the bravais lattice
Found 192 space-group symmetries with basis
Applied RMS atom displacement 6.87527e-05 bohrs to make symmetries exact.

---------- Initializing the Grid ----------
R = 
[    25.1736   -12.5868          0  ]
[          0     21.801          0  ]
[          0          0    34.2617  ]
unit cell volume = 18803.1
G =
[   0.249594   0.144103         -0  ]
[          0   0.288207          0  ]
[          0         -0   0.183388  ]
Minimum fftbox size, Smin = [  104  104  140  ]
Chosen fftbox size, S = [  108  108  140  ]

---------- Exchange Correlation functional ----------
Initalized PBE GGA exchange.
Initalized PBE GGA correlation.

---------- Setting up pseudopotentials ----------
Width of ionic core gaussian charges (only for fluid interactions / plotting) set to 0.397384

Reading pseudopotential file '/home/guoxy/vasp/jdftx-1.5.0/build/pseudopotentials/GBRV/ta_pbe.uspp':
  Title: Ta.  Created by USPP 7.3.6 on 14-9-2013
  Reference state energy: -70.583193.  13 valence electrons in orbitals:
    |500>  occupation: 2  eigenvalue: -2.682396
    |510>  occupation: 6  eigenvalue: -1.447928
    |520>  occupation: 3  eigenvalue: -0.131987
    |600>  occupation: 2  eigenvalue: -0.199982
    |610>  occupation: 0  eigenvalue: -0.051129
  lMax: 3  lLocal: 3  QijEcut: 5
  7 projectors sampled on a log grid with 667 points:
    l: 0  eig: -2.682397  rCut: 1.4
    l: 0  eig: -0.199983  rCut: 1.4
    l: 1  eig: -1.447928  rCut: 1.5
    l: 1  eig: -0.051130  rCut: 1.5
    l: 2  eig: -0.131987  rCut: 1.7
    l: 2  eig: 0.150000  rCut: 1.7
    l: 3  eig: 0.250000  rCut: 2.3
  Partial core density with radius 1.2
  Transforming core density to a uniform radial grid of dG=0.02 with 1498 points.
  Transforming local potential to a uniform radial grid of dG=0.02 with 1498 points.
  Transforming nonlocal projectors to a uniform radial grid of dG=0.02 with 432 points.
  Transforming density augmentations to a uniform radial grid of dG=0.02 with 1498 points.
  Transforming atomic orbitals to a uniform radial grid of dG=0.02 with 432 points.
  Core radius for overlap checks: 2.30 bohrs.

Reading pseudopotential file '/home/guoxy/vasp/jdftx-1.5.0/build/pseudopotentials/GBRV/s_pbe.uspp':
  Title: S.  Created by USPP 7.3.6 on 1-4-15
  Reference state energy: -11.898476.  6 valence electrons in orbitals:
    |300>  occupation: 2  eigenvalue: -0.634167
    |310>  occupation: 4  eigenvalue: -0.257568
  lMax: 2  lLocal: 3  QijEcut: 6
  6 projectors sampled on a log grid with 635 points:
    l: 0  eig: -0.634161  rCut: 1.5
    l: 0  eig: 1.500000  rCut: 1.5
    l: 1  eig: -0.257567  rCut: 1.5
    l: 1  eig: 1.500000  rCut: 1.5
    l: 2  eig: -1.000000  rCut: 1.5
    l: 2  eig: 1.500000  rCut: 1.5
  Partial core density with radius 1.15
  Transforming core density to a uniform radial grid of dG=0.02 with 1498 points.
  Transforming local potential to a uniform radial grid of dG=0.02 with 1498 points.
  Transforming nonlocal projectors to a uniform radial grid of dG=0.02 with 432 points.
  Transforming density augmentations to a uniform radial grid of dG=0.02 with 1498 points.
  Transforming atomic orbitals to a uniform radial grid of dG=0.02 with 432 points.
  Core radius for overlap checks: 1.50 bohrs.

Initialized 2 species with 48 total atoms.

Folded 1 k-points by 4x4x1 to 16 k-points.

---------- Setting up k-points, bands, fillings ----------
Adding inversion symmetry to k-mesh for non-inversion-symmetric unit cell.
Reduced to 4 k-points under symmetry. 
Computing the number of bands and number of electrons
Calculating initial fillings.
nElectrons: 401.000000   nBands: 336   nStates: 8

----- Setting up reduced wavefunction bases (one per k-point) -----
average nbasis = 80337.188 , ideal nbasis = 80328.404

---------- Setting up coulomb interaction ----------
Fluid mode embedding: using embedded box, but periodic Coulomb kernel.
(Fluid response is responsible for (approximate) separation between periodic images.)
Setting up double-sized grid for truncated Coulomb potentials:
R = 
[    25.1736   -12.5868          0  ]
[          0     21.801          0  ]
[          0          0    68.5234  ]
unit cell volume = 37606.3
G =
[   0.249594   0.144103         -0  ]
[          0   0.288207          0  ]
[          0         -0  0.0916941  ]
Chosen fftbox size, S = [  108  108  280  ]
Integer grid location selected as the embedding center:
   Grid: [  54  54  70  ]
   Lattice: [  0.5  0.5  0.5  ]
   Cartesian: [  6.2934  10.9005  17.1308  ]
Constructing Wigner-Seitz cell: 8 faces (6 quadrilaterals, 2 hexagons)
Range-separation parameter for embedded mesh potentials due to point charges: 0.624095 bohrs.

Initializing van der Waals corrections
	NOTE: vdW corrections apply only for interactions with fluid.
	Ta:  C6:  815.23 Eh-a0^6  R0: 3.326 a0 (WARNING: beyond Grimme's data set)
	 S:  C6:   96.61 Eh-a0^6  R0: 3.180 a0

---------- Setting up ewald sum ----------
Optimum gaussian width for ewald sums = 7.011160 bohr.
Real space sum over 605 unit cells with max indices [  5  5  2  ]
Reciprocal space sum over 7425 terms with max indices [  7  7  16  ]

---------- Allocating electronic variables ----------
Initializing wave functions:  linear combination of atomic orbitals
Ta pseudo-atom occupations:   s ( 2 2 )  p ( 6 0 )  d ( 3 )
S pseudo-atom occupations:   s ( 2 )  p ( 4 )
	FillingsUpdate:  mu: +0.715521069  nElectrons: 401.000000  magneticMoment: [ Abs: 1.98162  Tot: +1.87653 ]
LCAOMinimize: Iter:   0  F: -1230.0297777330802091  |grad|_K:  2.794e-02  alpha:  1.000e+00
	FillingsUpdate:  mu: -0.733064550  nElectrons: 401.000000  magneticMoment: [ Abs: 2.11954  Tot: +2.11516 ]
LCAOMinimize: Iter:   1  F: -1235.8754089723711331  |grad|_K:  1.437e-02  alpha:  4.747e-01  linmin:  1.488e-01  cgtest: -2.064e+00  t[s]:    216.85
LCAOMinimize: 	Bad step direction: g.d > 0.
LCAOMinimize: 	Undoing step.
LCAOMinimize: 	Step failed: resetting search direction.
	FillingsUpdate:  mu: -0.733064550  nElectrons: 401.000000  magneticMoment: [ Abs: 2.11954  Tot: +2.11516 ]
LCAOMinimize: Iter:   2  F: -1235.8754089723711331  |grad|_K:  1.437e-02  alpha:  0.000e+00
	FillingsUpdate:  mu: -0.337026594  nElectrons: 401.000000  magneticMoment: [ Abs: 2.46403  Tot: +2.45131 ]
LCAOMinimize: Iter:   3  F: -1259.5302367790861808  |grad|_K:  7.043e-03  alpha:  1.846e-01  linmin: -3.693e-01  cgtest:  1.012e+00  t[s]:    330.27
LCAOMinimize: Encountered beta<0, resetting CG.
LCAOMinimize: 	Predicted alpha/alphaT>3.000000, increasing alphaT to 5.536955e-01.
	FillingsUpdate:  mu: -0.263602044  nElectrons: 401.000000  magneticMoment: [ Abs: 2.28105  Tot: +2.25208 ]
LCAOMinimize: Iter:   4  F: -1264.1119971872949463  |grad|_K:  5.583e-03  alpha:  1.038e-01  linmin: -3.750e-01  cgtest:  8.553e-01  t[s]:    419.49
LCAOMinimize: Encountered beta<0, resetting CG.
LCAOMinimize: 	Predicted alpha/alphaT>3.000000, increasing alphaT to 3.115180e-01.
	FillingsUpdate:  mu: -0.062065766  nElectrons: 401.000000  magneticMoment: [ Abs: 1.81908  Tot: +1.76835 ]
LCAOMinimize: Iter:   5  F: -1268.4014712300577230  |grad|_K:  6.271e-04  alpha:  2.564e-01  linmin:  4.356e-01  cgtest: -7.743e-01  t[s]:    507.35
LCAOMinimize: 	Bad step direction: g.d > 0.
LCAOMinimize: 	Undoing step.
LCAOMinimize: 	Step failed: resetting search direction.
	FillingsUpdate:  mu: -0.062065766  nElectrons: 401.000000  magneticMoment: [ Abs: 1.81908  Tot: +1.76835 ]
LCAOMinimize: Iter:   6  F: -1268.4014712300577230  |grad|_K:  6.271e-04  alpha:  0.000e+00
	FillingsUpdate:  mu: -0.091523637  nElectrons: 401.000000  magneticMoment: [ Abs: 1.70987  Tot: +1.65732 ]
LCAOMinimize: Iter:   7  F: -1268.4358848169142675  |grad|_K:  5.966e-05  alpha:  1.954e-01  linmin: -3.724e-02  cgtest:  7.713e-02  t[s]:    619.79
LCAOMinimize: 	Predicted alpha/alphaT>3.000000, increasing alphaT to 5.863318e-01.
	FillingsUpdate:  mu: -0.090262490  nElectrons: 401.000000  magneticMoment: [ Abs: 1.08747  Tot: +1.02848 ]
LCAOMinimize: Iter:   8  F: -1268.4374382883104317  |grad|_K:  1.880e-05  alpha:  9.636e-01  linmin:  5.049e-03  cgtest: -4.267e-02  t[s]:    705.61
	FillingsUpdate:  mu: -0.090262958  nElectrons: 401.000000  magneticMoment: [ Abs: 0.12155  Tot: +0.06737 ]
LCAOMinimize: Iter:   9  F: -1268.4377606391617519  |grad|_K:  7.455e-06  alpha:  2.031e+00  linmin: -2.457e-03  cgtest:  6.685e-02  t[s]:    773.52
	FillingsUpdate:  mu: -0.090672844  nElectrons: 401.000000  magneticMoment: [ Abs: 0.03478  Tot: +0.00641 ]
LCAOMinimize: Iter:  10  F: -1268.4377796795968152  |grad|_K:  4.960e-06  alpha:  7.553e-01  linmin:  1.422e-03  cgtest: -6.332e-03  t[s]:    840.04
	FillingsUpdate:  mu: -0.090450768  nElectrons: 401.000000  magneticMoment: [ Abs: 0.01842  Tot: -0.00210 ]
LCAOMinimize: Iter:  11  F: -1268.4377823968779921  |grad|_K:  1.032e-06  alpha:  2.436e-01  linmin: -2.266e-04  cgtest:  1.551e-02  t[s]:    906.81
LCAOMinimize: 	Predicted alpha/alphaT>3.000000, increasing alphaT to 7.309454e-01.
	FillingsUpdate:  mu: -0.090423868  nElectrons: 401.000000  magneticMoment: [ Abs: 0.00507  Tot: -0.00045 ]
LCAOMinimize: Iter:  12  F: -1268.4377828386416240  |grad|_K:  2.029e-07  alpha:  9.125e-01  linmin: -3.203e-04  cgtest: -1.494e-03  t[s]:    993.63
	FillingsUpdate:  mu: -0.090433487  nElectrons: 401.000000  magneticMoment: [ Abs: 0.00187  Tot: +0.00028 ]
LCAOMinimize: Iter:  13  F: -1268.4377828577373748  |grad|_K:  1.040e-07  alpha:  1.021e+00  linmin:  4.936e-04  cgtest: -1.671e-03  t[s]:   1060.86
LCAOMinimize: Converged (|Delta F|<1.000000e-06 for 2 iters).
----- createFluidSolver() ----- (Fluid-side solver setup)
   Initializing fluid molecule 'H2O'
     Initializing site 'O'
       Electron density: proportional to exp(-r/0.36935)*erfc((r-0.51523)/0.36823) with norm 6.826
       Charge density: gaussian nuclear width 0.478731 with net site charge 0.826
       Polarizability: cuspless exponential with width 0.32 and norm 3.73
       Hard sphere radius: 2.57003 bohrs
       Positions in reference frame:
         [ +0.000000 +0.000000 +0.000000 ]
     Initializing site 'H'
       Electron density: proportional to exp(-r/0.34641)*erfc((r-0)/0.390882) with norm 0.587
       Charge density: gaussian nuclear width 0.377945 with net site charge -0.413
       Polarizability: cuspless exponential with width 0.39 and norm 3.3
       Positions in reference frame:
         [ +0.000000 -1.441945 +1.122523 ]
         [ +0.000000 +1.441945 +1.122523 ]
     Net charge: 0   dipole magnitude: 0.927204
     Initializing spherical shell mfKernel with radius 2.61727 Bohr
     deltaS corrections:
       site 'O': -7.54299
       site 'H': -6.83917
   Initializing fluid molecule 'Na+'
     Initializing site 'Na'
       Electron density: proportional to exp(-r/0.19682)*erfc((r-0.71491)/0.41314) with norm 8.1383
       Charge density: gaussian nuclear width 0.365347 with net site charge -1
       Hard sphere radius: 1.86327 bohrs
       Positions in reference frame:
         [ +0.000000 +0.000000 +0.000000 ]
     Net charge: -1   dipole magnitude: 0
     Initializing gaussian mfKernel with width: 1.55004 Bohr
     deltaS corrections:
       site 'Na': -22.3555
   Initializing fluid molecule 'F-'
     Initializing site 'F'
       Electron density: proportional to exp(-r/0.38886)*erfc((r-0)/0.438782) with norm 8
       Charge density: gaussian nuclear width 0.374796 with net site charge 1
       Hard sphere radius: 2.39995 bohrs
       Positions in reference frame:
         [ +0.000000 +0.000000 +0.000000 ]
     Net charge: 1   dipole magnitude: 0
     Initializing gaussian mfKernel with width: 1.59012 Bohr
     deltaS corrections:
       site 'F': -9.04335

Correction to mu due to finite nuclear width = -0.0105536
   Cavity determined by nc: 0.00142 and sigma: 0.707107
   Nonlocal vdW cavity from gaussian model electron density with norm = 8 and sigma = 0.993594 bohr
   Charge asymmetry in cavity with sensitivity pCavity = 36.5 e-bohr/Eh
   Electrostatic cavity expanded by eta = 1.46 bohrs
   Weighted density cavitation model constrained by Nbulk: 0.0049383 bohr^-3, Pvap: 3.14029 kPa, Rvdw: 2.61727 bohr and sigmaBulk: 4.62e-05 Eh/bohr^2 at T: 298 K.
   Weighted density dispersion model using vdW pair potentials with single solvent site with sqrtC6eff: 0.77 SI.


---- Citations for features of the code used in this run ----

   Software package:
      R. Sundararaman, K. Letchworth-Weaver, K.A. Schwarz, D. Gunceler, Y. Ozhabes and T.A. Arias, 'JDFTx: software for joint density-functional theory', SoftwareX 6, 278 (2017)

   gga-PBE exchange-correlation functional:
      J.P. Perdew, K. Burke and M. Ernzerhof, Phys. Rev. Lett. 77, 3865 (1996)

   Pseudopotentials:
      KF Garrity, JW Bennett, KM Rabe and D Vanderbilt, Comput. Mater. Sci. 81, 446 (2014)

   Truncated Coulomb potentials:
      R. Sundararaman and T.A. Arias, Phys. Rev. B 87, 165122 (2013)

   Van der Waals correction pair-potentials:
      S. Grimme, J. Comput. Chem. 27, 1787 (2006)

   Charge-asymmetric nonlocally-determined local-electric (CANDLE) solvation model:
      R. Sundararaman and W.A. Goddard III, J. Chem. Phys. 142, 064107 (2015)

   Total energy minimization with Auxiliary Hamiltonian:
      C. Freysoldt, S. Boeck, and J. Neugebauer, Phys. Rev. B 79, 241103(R) (2009)

This list may not be complete. Please suggest additional citations or
report any other bugs at https://github.com/shankar1729/jdftx/issues

Initialization completed successfully at t[s]:   1071.51

Fluid solver invoked on fresh (partially random / LCAO) wavefunctions
Running a vacuum solve first:

-------- Initial electronic minimization -----------
	FillingsUpdate:  mu: -0.090433487  nElectrons: 401.000000  magneticMoment: [ Abs: 0.00187  Tot: +0.00028 ]
ElecMinimize: Iter:   0  F: -1268.437782857714637  |grad|_K:  8.467e-05  alpha:  1.000e+00
	FillingsUpdate:  mu: +0.004506735  nElectrons: 401.000000  magneticMoment: [ Abs: 0.00115  Tot: +0.00008 ]
	SubspaceRotationAdjust: set factor to 0.99
ElecMinimize: Iter:   1  F: -1269.678070736285463  |grad|_K:  4.723e-05  alpha:  8.025e-01  linmin: -2.848e-05  t[s]:   1221.76
	FillingsUpdate:  mu: -0.053577155  nElectrons: 401.000000  magneticMoment: [ Abs: 0.00082  Tot: -0.00011 ]
	SubspaceRotationAdjust: set factor to 0.651
ElecMinimize: Iter:   2  F: -1269.867386120955643  |grad|_K:  3.294e-05  alpha:  4.175e-01  linmin:  2.324e-04  t[s]:   1315.63
	FillingsUpdate:  mu: -0.028298435  nElectrons: 401.000000  magneticMoment: [ Abs: 0.00058  Tot: -0.00023 ]
	SubspaceRotationAdjust: set factor to 0.477
ElecMinimize: Iter:   3  F: -1269.971249597989981  |grad|_K:  1.432e-05  alpha:  4.543e-01  linmin:  1.585e-04  t[s]:   1407.84
	FillingsUpdate:  mu: -0.033341749  nElectrons: 401.000000  magneticMoment: [ Abs: 0.00045  Tot: -0.00027 ]
	SubspaceRotationAdjust: set factor to 0.535
ElecMinimize: Iter:   4  F: -1269.998581749884352  |grad|_K:  8.930e-06  alpha:  6.301e-01  linmin:  2.392e-05  t[s]:   1498.90
	FillingsUpdate:  mu: -0.037827765  nElectrons: 401.000000  magneticMoment: [ Abs: 0.00036  Tot: -0.00028 ]
	SubspaceRotationAdjust: set factor to 0.614
ElecMinimize: Iter:   5  F: -1270.009639666497606  |grad|_K:  5.428e-06  alpha:  6.444e-01  linmin:  2.264e-05  t[s]:   1591.02
	FillingsUpdate:  mu: -0.034347583  nElectrons: 401.000000  magneticMoment: [ Abs: 0.00031  Tot: -0.00026 ]
	SubspaceRotationAdjust: set factor to 0.692
ElecMinimize: Iter:   6  F: -1270.013929307133367  |grad|_K:  3.435e-06  alpha:  6.760e-01  linmin:  2.453e-05  t[s]:   1684.34
	FillingsUpdate:  mu: -0.035790242  nElectrons: 401.000000  magneticMoment: [ Abs: 0.00026  Tot: -0.00022 ]
	SubspaceRotationAdjust: set factor to 0.861
ElecMinimize: Iter:   7  F: -1270.015463023413531  |grad|_K:  2.021e-06  alpha:  6.049e-01  linmin:  5.003e-06  t[s]:   1778.51
	FillingsUpdate:  mu: -0.036276349  nElectrons: 401.000000  magneticMoment: [ Abs: 0.00021  Tot: -0.00018 ]
	SubspaceRotationAdjust: set factor to 0.991
ElecMinimize: Iter:   8  F: -1270.015958681112124  |grad|_K:  1.133e-06  alpha:  5.622e-01  linmin:  3.827e-06  t[s]:   1871.00
	FillingsUpdate:  mu: -0.035623855  nElectrons: 401.000000  magneticMoment: [ Abs: 0.00016  Tot: -0.00014 ]
	SubspaceRotationAdjust: set factor to 0.929
ElecMinimize: Iter:   9  F: -1270.016120069213002  |grad|_K:  7.874e-07  alpha:  5.819e-01  linmin:  3.569e-06  t[s]:   1962.79
	FillingsUpdate:  mu: -0.036436245  nElectrons: 401.000000  magneticMoment: [ Abs: 0.00012  Tot: -0.00010 ]
	SubspaceRotationAdjust: set factor to 0.728
ElecMinimize: Iter:  10  F: -1270.016175714916926  |grad|_K:  4.712e-07  alpha:  4.154e-01  linmin:  3.779e-07  t[s]:   2055.59
	FillingsUpdate:  mu: -0.036138936  nElectrons: 401.000000  magneticMoment: [ Abs: 0.00008  Tot: -0.00007 ]
	SubspaceRotationAdjust: set factor to 0.712
ElecMinimize: Iter:  11  F: -1270.016202723575816  |grad|_K:  2.949e-07  alpha:  5.626e-01  linmin:  1.825e-06  t[s]:   2147.78
	FillingsUpdate:  mu: -0.036172702  nElectrons: 401.000000  magneticMoment: [ Abs: 0.00005  Tot: -0.00005 ]
	SubspaceRotationAdjust: set factor to 0.876
ElecMinimize: Iter:  12  F: -1270.016212709191677  |grad|_K:  1.897e-07  alpha:  5.316e-01  linmin:  6.259e-07  t[s]:   2239.48
	FillingsUpdate:  mu: -0.036242292  nElectrons: 401.000000  magneticMoment: [ Abs: 0.00004  Tot: -0.00004 ]
	SubspaceRotationAdjust: set factor to 0.931
ElecMinimize: Iter:  13  F: -1270.016216833539829  |grad|_K:  1.225e-07  alpha:  5.298e-01  linmin:  3.515e-07  t[s]:   2331.12
	FillingsUpdate:  mu: -0.036135697  nElectrons: 401.000000  magneticMoment: [ Abs: 0.00003  Tot: -0.00002 ]
	SubspaceRotationAdjust: set factor to 0.856
ElecMinimize: Iter:  14  F: -1270.016218417173832  |grad|_K:  7.819e-08  alpha:  4.880e-01  linmin:  1.421e-07  t[s]:   2423.23
	FillingsUpdate:  mu: -0.036177377  nElectrons: 401.000000  magneticMoment: [ Abs: 0.00002  Tot: -0.00002 ]
	SubspaceRotationAdjust: set factor to 0.811
ElecMinimize: Iter:  15  F: -1270.016219102281411  |grad|_K:  4.712e-08  alpha:  5.180e-01  linmin:  9.680e-08  t[s]:   2515.49
	FillingsUpdate:  mu: -0.036165359  nElectrons: 401.000000  magneticMoment: [ Abs: 0.00001  Tot: -0.00001 ]
	SubspaceRotationAdjust: set factor to 0.907
ElecMinimize: Iter:  16  F: -1270.016219370758790  |grad|_K:  3.285e-08  alpha:  5.589e-01  linmin:  8.510e-08  t[s]:   2607.29
	FillingsUpdate:  mu: -0.036161298  nElectrons: 401.000000  magneticMoment: [ Abs: 0.00001  Tot: -0.00001 ]
	SubspaceRotationAdjust: set factor to 1.03
ElecMinimize: Iter:  17  F: -1270.016219496332951  |grad|_K:  2.157e-08  alpha:  5.381e-01  linmin:  4.269e-08  t[s]:   2699.39
	FillingsUpdate:  mu: -0.036172407  nElectrons: 401.000000  magneticMoment: [ Abs: 0.00000  Tot: -0.00000 ]
	SubspaceRotationAdjust: set factor to 1.08
ElecMinimize: Iter:  18  F: -1270.016219552577468  |grad|_K:  1.542e-08  alpha:  5.588e-01  linmin:  1.663e-08  t[s]:   2790.30
	FillingsUpdate:  mu: -0.036161123  nElectrons: 401.000000  magneticMoment: [ Abs: 0.00000  Tot: -0.00000 ]
	SubspaceRotationAdjust: set factor to 0.941
ElecMinimize: Iter:  19  F: -1270.016219577364382  |grad|_K:  1.066e-08  alpha:  4.817e-01  linmin: -5.677e-09  t[s]:   2881.83
	FillingsUpdate:  mu: -0.036169520  nElectrons: 401.000000  magneticMoment: [ Abs: 0.00000  Tot: -0.00000 ]
	SubspaceRotationAdjust: set factor to 0.807
ElecMinimize: Iter:  20  F: -1270.016219590371975  |grad|_K:  7.732e-09  alpha:  5.286e-01  linmin:  9.616e-09  t[s]:   2976.26
	FillingsUpdate:  mu: -0.036165215  nElectrons: 401.000000  magneticMoment: [ Abs: 0.00000  Tot: +0.00000 ]
	SubspaceRotationAdjust: set factor to 0.842
ElecMinimize: Iter:  21  F: -1270.016219597430108  |grad|_K:  5.670e-09  alpha:  5.448e-01  linmin: -9.618e-09  t[s]:   3070.21
	FillingsUpdate:  mu: -0.036165359  nElectrons: 401.000000  magneticMoment: [ Abs: 0.00000  Tot: +0.00000 ]
	SubspaceRotationAdjust: set factor to 0.971
ElecMinimize: Iter:  22  F: -1270.016219601539433  |grad|_K:  4.287e-09  alpha:  5.898e-01  linmin: -1.951e-08  t[s]:   3163.11
ElecMinimize: Converged (|Delta F|<1.000000e-08 for 2 iters).
Setting wave functions to eigenvectors of Hamiltonian
Vacuum energy after initial minimize, F = -1270.016219601539433

	Linear fluid (dielectric constant: 78.4, screening length: 5.74355 Bohr) occupying 0.758370 of unit cell:	Completed after 15 iterations at t[s]:   3185.45

-------- Electronic minimization -----------
	Linear fluid (dielectric constant: 78.4, screening length: 5.74355 Bohr) occupying 0.758370 of unit cell:	Completed after 0 iterations at t[s]:   3209.48
	FillingsUpdate:  mu: -0.190643909  nElectrons: 401.000000  magneticMoment: [ Abs: 0.00000  Tot: +0.00000 ]
ElecMinimize: Iter:   0  F: -1270.127205326756894  |grad|_K:  1.668e-06  alpha:  1.000e+00
	Linear fluid (dielectric constant: 78.4, screening length: 5.74355 Bohr) occupying 0.758849 of unit cell:	Completed after 9 iterations at t[s]:   3282.06
	Linear fluid (dielectric constant: 78.4, screening length: 5.74355 Bohr) occupying 0.758548 of unit cell:	Completed after 11 iterations at t[s]:   3314.79
	FillingsUpdate:  mu: -0.193093133  nElectrons: 401.000000  magneticMoment: [ Abs: 0.00002  Tot: +0.00000 ]
	SubspaceRotationAdjust: set factor to 0.673
ElecMinimize: Iter:   1  F: -1270.127413151439441  |grad|_K:  1.164e-06  alpha:  3.488e-01  linmin:  1.066e-06  t[s]:   3357.18
	Linear fluid (dielectric constant: 78.4, screening length: 5.74355 Bohr) occupying 0.758795 of unit cell:	Completed after 7 iterations at t[s]:   3386.52
	Linear fluid (dielectric constant: 78.4, screening length: 5.74355 Bohr) occupying 0.758964 of unit cell:	Completed after 7 iterations at t[s]:   3419.04
	FillingsUpdate:  mu: -0.192171542  nElectrons: 401.000000  magneticMoment: [ Abs: 0.00004  Tot: +0.00000 ]
	SubspaceRotationAdjust: set factor to 0.844
ElecMinimize: Iter:   2  F: -1270.127592398145680  |grad|_K:  3.127e-07  alpha:  6.011e-01  linmin: -6.597e-06  t[s]:   3460.37
	Linear fluid (dielectric constant: 78.4, screening length: 5.74355 Bohr) occupying 0.759022 of unit cell:	Completed after 5 iterations at t[s]:   3489.26
	Linear fluid (dielectric constant: 78.4, screening length: 5.74355 Bohr) occupying 0.759043 of unit cell:	Completed after 2 iterations at t[s]:   3519.82
	FillingsUpdate:  mu: -0.192007288  nElectrons: 401.000000  magneticMoment: [ Abs: 0.00003  Tot: +0.00000 ]
	SubspaceRotationAdjust: set factor to 0.839
ElecMinimize: Iter:   3  F: -1270.127610763885741  |grad|_K:  2.023e-07  alpha:  8.227e-01  linmin: -2.239e-06  t[s]:   3560.34
	Linear fluid (dielectric constant: 78.4, screening length: 5.74355 Bohr) occupying 0.759077 of unit cell:	Completed after 3 iterations at t[s]:   3588.46
	Linear fluid (dielectric constant: 78.4, screening length: 5.74355 Bohr) occupying 0.759072 of unit cell:	Completed after 0 iterations at t[s]:   3619.45
	FillingsUpdate:  mu: -0.191927390  nElectrons: 401.000000  magneticMoment: [ Abs: 0.00002  Tot: +0.00001 ]
	SubspaceRotationAdjust: set factor to 0.926
ElecMinimize: Iter:   4  F: -1270.127616844988324  |grad|_K:  1.296e-07  alpha:  6.792e-01  linmin:  7.687e-07  t[s]:   3659.86
	Linear fluid (dielectric constant: 78.4, screening length: 5.74355 Bohr) occupying 0.759074 of unit cell:	Completed after 2 iterations at t[s]:   3689.41
	Linear fluid (dielectric constant: 78.4, screening length: 5.74355 Bohr) occupying 0.759074 of unit cell:	Completed after 0 iterations at t[s]:   3719.16
	FillingsUpdate:  mu: -0.192058938  nElectrons: 401.000000  magneticMoment: [ Abs: 0.00002  Tot: +0.00001 ]
	SubspaceRotationAdjust: set factor to 0.799
ElecMinimize: Iter:   5  F: -1270.127618741904143  |grad|_K:  8.576e-08  alpha:  5.191e-01  linmin:  5.043e-06  t[s]:   3758.37
	Linear fluid (dielectric constant: 78.4, screening length: 5.74355 Bohr) occupying 0.759072 of unit cell:	Completed after 2 iterations at t[s]:   3786.79
	Linear fluid (dielectric constant: 78.4, screening length: 5.74355 Bohr) occupying 0.759073 of unit cell:	Completed after 2 iterations at t[s]:   3818.06
	FillingsUpdate:  mu: -0.191955043  nElectrons: 401.000000  magneticMoment: [ Abs: 0.00002  Tot: +0.00001 ]
	SubspaceRotationAdjust: set factor to 0.471
ElecMinimize: Iter:   6  F: -1270.127619151088311  |grad|_K:  4.986e-08  alpha:  3.102e-01  linmin:  1.475e-07  t[s]:   3858.79
	Linear fluid (dielectric constant: 78.4, screening length: 5.74355 Bohr) occupying 0.759070 of unit cell:	Completed after 0 iterations at t[s]:   3887.06
	Linear fluid (dielectric constant: 78.4, screening length: 5.74355 Bohr) occupying 0.759068 of unit cell:	Completed after 0 iterations at t[s]:   3916.33
	FillingsUpdate:  mu: -0.191954049  nElectrons: 401.000000  magneticMoment: [ Abs: 0.00001  Tot: +0.00001 ]
	SubspaceRotationAdjust: set factor to 0.726
ElecMinimize: Iter:   7  F: -1270.127619449984877  |grad|_K:  3.937e-08  alpha:  5.561e-01  linmin:  3.446e-08  t[s]:   3956.29
	Linear fluid (dielectric constant: 78.4, screening length: 5.74355 Bohr) occupying 0.759064 of unit cell:	Completed after 3 iterations at t[s]:   3984.98
	Linear fluid (dielectric constant: 78.4, screening length: 5.74355 Bohr) occupying 0.759067 of unit cell:	Completed after 0 iterations at t[s]:   4015.60
	FillingsUpdate:  mu: -0.192059515  nElectrons: 401.000000  magneticMoment: [ Abs: 0.00001  Tot: +0.00001 ]
	SubspaceRotationAdjust: set factor to 0.563
ElecMinimize: Iter:   8  F: -1270.127619469850742  |grad|_K:  5.986e-08  alpha:  1.801e-01  linmin:  5.146e-05  t[s]:   4055.43
	Linear fluid (dielectric constant: 78.4, screening length: 5.74355 Bohr) occupying 0.759064 of unit cell:	Completed after 0 iterations at t[s]:   4084.09
	Linear fluid (dielectric constant: 78.4, screening length: 5.74355 Bohr) occupying 0.759066 of unit cell:	Completed after 0 iterations at t[s]:   4114.44
	FillingsUpdate:  mu: -0.192059371  nElectrons: 401.000000  magneticMoment: [ Abs: 0.00001  Tot: +0.00001 ]
	SubspaceRotationAdjust: set factor to 0.428
ElecMinimize: Iter:   9  F: -1270.127619498489821  |grad|_K:  5.282e-08  alpha:  8.526e-02  linmin:  2.216e-09  t[s]:   4154.56
	Linear fluid (dielectric constant: 78.4, screening length: 5.74355 Bohr) occupying 0.759065 of unit cell:	Completed after 0 iterations at t[s]:   4182.76
	Linear fluid (dielectric constant: 78.4, screening length: 5.74355 Bohr) occupying 0.759064 of unit cell:	Completed after 1 iterations at t[s]:   4212.18
ElecMinimize: 	Step increased F by 9.856331e-08, reducing alpha to 2.328059e-02.
	Linear fluid (dielectric constant: 78.4, screening length: 5.74355 Bohr) occupying 0.759066 of unit cell:	Completed after 0 iterations at t[s]:   4274.45
	FillingsUpdate:  mu: -0.191993626  nElectrons: 401.000000  magneticMoment: [ Abs: 0.00001  Tot: +0.00001 ]
	SubspaceRotationAdjust: set factor to 0.289
ElecMinimize: Iter:  10  F: -1270.127619502846301  |grad|_K:  1.802e-08  alpha:  2.328e-02  linmin: -6.689e-06  t[s]:   4315.08
	Linear fluid (dielectric constant: 78.4, screening length: 5.74355 Bohr) occupying 0.759066 of unit cell:	Completed after 0 iterations at t[s]:   4343.19
ElecMinimize: 	Predicted alpha/alphaT>3.000000, increasing alphaT to 6.984178e-02.
	Linear fluid (dielectric constant: 78.4, screening length: 5.74355 Bohr) occupying 0.759066 of unit cell:	Completed after 0 iterations at t[s]:   4372.42
ElecMinimize: 	Predicted alpha/alphaT>3.000000, increasing alphaT to 2.095253e-01.
	Linear fluid (dielectric constant: 78.4, screening length: 5.74355 Bohr) occupying 0.759065 of unit cell:	Completed after 0 iterations at t[s]:   4402.18
	Linear fluid (dielectric constant: 78.4, screening length: 5.74355 Bohr) occupying 0.759065 of unit cell:	Completed after 0 iterations at t[s]:   4432.00
	FillingsUpdate:  mu: -0.191993634  nElectrons: 401.000000  magneticMoment: [ Abs: 0.00001  Tot: +0.00001 ]
	SubspaceRotationAdjust: set factor to 0.366
ElecMinimize: Iter:  11  F: -1270.127619536399607  |grad|_K:  1.141e-08  alpha:  4.584e-01  linmin:  7.016e-08  t[s]:   4471.72
	Linear fluid (dielectric constant: 78.4, screening length: 5.74355 Bohr) occupying 0.759065 of unit cell:	Completed after 0 iterations at t[s]:   4499.78
	Linear fluid (dielectric constant: 78.4, screening length: 5.74355 Bohr) occupying 0.759065 of unit cell:	Completed after 0 iterations at t[s]:   4528.90
	FillingsUpdate:  mu: -0.191993563  nElectrons: 401.000000  magneticMoment: [ Abs: 0.00001  Tot: +0.00001 ]
	SubspaceRotationAdjust: set factor to 0.456
ElecMinimize: Iter:  12  F: -1270.127619552960823  |grad|_K:  9.056e-09  alpha:  5.873e-01  linmin: -1.629e-07  t[s]:   4568.18
	Linear fluid (dielectric constant: 78.4, screening length: 5.74355 Bohr) occupying 0.759066 of unit cell:	Completed after 0 iterations at t[s]:   4596.01
	Linear fluid (dielectric constant: 78.4, screening length: 5.74355 Bohr) occupying 0.759065 of unit cell:	Completed after 0 iterations at t[s]:   4625.69
ElecMinimize: 	Step increased F by 1.182184e-08, reducing alpha to 2.091695e-02.
	Linear fluid (dielectric constant: 78.4, screening length: 5.74355 Bohr) occupying 0.759065 of unit cell:	Completed after 0 iterations at t[s]:   4688.39
ElecMinimize: 	Step increased F by 1.619560e-08, reducing alpha to 2.091695e-03.
	Linear fluid (dielectric constant: 78.4, screening length: 5.74355 Bohr) occupying 0.759065 of unit cell:	Completed after 0 iterations at t[s]:   4751.95
ElecMinimize: 	Step increased F by 1.672538e-08, reducing alpha to 2.091695e-04.
ElecMinimize: 	Step failed to reduce F after 3 attempts. Quitting step.
ElecMinimize: 	Undoing step.
	Linear fluid (dielectric constant: 78.4, screening length: 5.74355 Bohr) occupying 0.759065 of unit cell:	Completed after 0 iterations at t[s]:   4814.29
ElecMinimize: 	Step failed: resetting search direction.
	FillingsUpdate:  mu: -0.191991412  nElectrons: 401.000000  magneticMoment: [ Abs: 0.00001  Tot: +0.00001 ]
	SubspaceRotationAdjust: set factor to 0.54
ElecMinimize: Iter:  13  F: -1270.127619536200655  |grad|_K:  8.591e-09  alpha:  2.092e-04
	Linear fluid (dielectric constant: 78.4, screening length: 5.74355 Bohr) occupying 0.759066 of unit cell:	Completed after 0 iterations at t[s]:   4881.14
	Linear fluid (dielectric constant: 78.4, screening length: 5.74355 Bohr) occupying 0.759066 of unit cell:	Completed after 0 iterations at t[s]:   4911.20
	FillingsUpdate:  mu: -0.191991466  nElectrons: 401.000000  magneticMoment: [ Abs: 0.00001  Tot: +0.00000 ]
	SubspaceRotationAdjust: set factor to 0.731
ElecMinimize: Iter:  14  F: -1270.127619543777655  |grad|_K:  5.840e-09  alpha:  4.736e-01  linmin: -6.947e-08  t[s]:   4950.09
	Linear fluid (dielectric constant: 78.4, screening length: 5.74355 Bohr) occupying 0.759067 of unit cell:	Completed after 0 iterations at t[s]:   4977.91
	Linear fluid (dielectric constant: 78.4, screening length: 5.74355 Bohr) occupying 0.759067 of unit cell:	Completed after 0 iterations at t[s]:   5007.09
	FillingsUpdate:  mu: -0.191991534  nElectrons: 401.000000  magneticMoment: [ Abs: 0.00000  Tot: +0.00000 ]
	SubspaceRotationAdjust: set factor to 0.917
ElecMinimize: Iter:  15  F: -1270.127619549080009  |grad|_K:  4.574e-09  alpha:  7.046e-01  linmin: -1.923e-07  t[s]:   5046.56
ElecMinimize: Converged (|Delta F|<1.000000e-08 for 2 iters).
Setting wave functions to eigenvectors of Hamiltonian
Single-point solvation energy estimate, DeltaF = -0.111399947540576

# Ionic positions in lattice coordinates:
ion Ta   0.166667780131944   0.083332222888888   0.499999991333335 1
ion Ta   0.416667780131944   0.083332222888888   0.499999991333335 1
ion Ta   0.666667780131944   0.083332222888888   0.499999991333335 1
ion Ta   0.916667780131944   0.083332222888888   0.499999991333335 1
ion Ta   0.166667780131944   0.333332222888888   0.499999991333335 1
ion Ta   0.416667780131944   0.333332222888888   0.499999991333335 1
ion Ta   0.666667780131944   0.333332222888888   0.499999991333335 1
ion Ta   0.916667780131944   0.333332222888888   0.499999991333335 1
ion Ta   0.166667780131944   0.583332222888888   0.499999991333335 1
ion Ta   0.416667780131944   0.583332222888888   0.499999991333335 1
ion Ta   0.666667780131944   0.583332222888888   0.499999991333335 1
ion Ta   0.916667780131944   0.583332222888888   0.499999991333335 1
ion Ta   0.166667780131944   0.833332222888888   0.499999991333335 1
ion Ta   0.416667780131944   0.833332222888888   0.499999991333335 1
ion Ta   0.666667780131944   0.833332222888888   0.499999991333335 1
ion Ta   0.916667780131944   0.833332222888888   0.499999991333335 1
ion S   0.000001113465278  -0.000001110444445   0.586319979333335 1
ion S   0.000001113465278  -0.000001110444445   0.413680003333335 1
ion S   0.250001113465278  -0.000001110444445   0.586319979333335 1
ion S   0.250001113465278  -0.000001110444445   0.413680003333335 1
ion S   0.500001113465278  -0.000001110444445   0.586319979333335 1
ion S   0.500001113465278  -0.000001110444445   0.413680003333335 1
ion S   0.750001113465278  -0.000001110444445   0.586319979333335 1
ion S   0.750001113465278  -0.000001110444445   0.413680003333335 1
ion S   0.000001113465278   0.249998889555555   0.586319979333335 1
ion S   0.000001113465278   0.249998889555555   0.413680003333335 1
ion S   0.250001113465278   0.249998889555555   0.586319979333335 1
ion S   0.250001113465278   0.249998889555555   0.413680003333335 1
ion S   0.500001113465278   0.249998889555555   0.586319979333335 1
ion S   0.500001113465278   0.249998889555555   0.413680003333335 1
ion S   0.750001113465278   0.249998889555555   0.586319979333335 1
ion S   0.750001113465278   0.249998889555555   0.413680003333335 1
ion S   0.000001113465278   0.499998889555555   0.586319979333335 1
ion S   0.000001113465278   0.499998889555555   0.413680003333335 1
ion S   0.250001113465278   0.499998889555555   0.586319979333335 1
ion S   0.250001113465278   0.499998889555555   0.413680003333335 1
ion S   0.500001113465278   0.499998889555555   0.586319979333335 1
ion S   0.500001113465278   0.499998889555555   0.413680003333335 1
ion S   0.750001113465278   0.499998889555555   0.586319979333335 1
ion S   0.750001113465278   0.499998889555555   0.413680003333335 1
ion S   0.000001113465278   0.749998889555555   0.586319979333335 1
ion S   0.000001113465278   0.749998889555555   0.413680003333335 1
ion S   0.250001113465278   0.749998889555555   0.586319979333335 1
ion S   0.250001113465278   0.749998889555555   0.413680003333335 1
ion S   0.500001113465278   0.749998889555555   0.586319979333335 1
ion S   0.500001113465278   0.749998889555555   0.413680003333335 1
ion S   0.750001113465278   0.749998889555555   0.586319979333335 1
ion S   0.750001113465278   0.749998889555555   0.413680003333335 1


# Forces in Lattice coordinates:
force Ta   0.000000000000000   0.000000000000000  -0.000000000000000 1
force Ta  -0.000000000000000  -0.000000000000000   0.000000000000000 1
force Ta   0.000000000000000   0.000000000000000   0.000000000000000 1
force Ta   0.000000000000000   0.000000000000000   0.000000000000000 1
force Ta   0.000000000000000   0.000000000000000   0.000000000000000 1
force Ta  -0.000000000000000  -0.000000000000000   0.000000000000000 1
force Ta  -0.000000000000000  -0.000000000000000  -0.000000000000000 1
force Ta  -0.000000000000000   0.000000000000000   0.000000000000000 1
force Ta  -0.000000000000000  -0.000000000000000   0.000000000000000 1
force Ta  -0.000000000000000  -0.000000000000000  -0.000000000000000 1
force Ta   0.000000000000000   0.000000000000000   0.000000000000000 1
force Ta   0.000000000000000   0.000000000000000   0.000000000000000 1
force Ta   0.000000000000000  -0.000000000000000  -0.000000000000000 1
force Ta   0.000000000000000  -0.000000000000000   0.000000000000000 1
force Ta   0.000000000000000   0.000000000000000   0.000000000000000 1
force Ta   0.000000000000000   0.000000000000000  -0.000000000000000 1
force S  -0.000000000000000   0.000000000000000   0.010512474099673 1
force S   0.000000000000000  -0.000000000000000  -0.010512474099673 1
force S   0.000000000000000  -0.000000000000000   0.010512474099673 1
force S   0.000000000000000   0.000000000000000  -0.010512474099561 1
force S   0.000000000000000  -0.000000000000000   0.010512474099672 1
force S  -0.000000000000000   0.000000000000000  -0.010512474099559 1
force S  -0.000000000000000  -0.000000000000000   0.010512474099673 1
force S   0.000000000000000   0.000000000000000  -0.010512474099559 1
force S   0.000000000000000  -0.000000000000000   0.010512474099786 1
force S  -0.000000000000000   0.000000000000000  -0.010512474099673 1
force S   0.000000000000000  -0.000000000000000   0.010512474099673 1
force S   0.000000000000000   0.000000000000000  -0.010512474099560 1
force S  -0.000000000000000  -0.000000000000000   0.010512474099787 1
force S   0.000000000000000   0.000000000000000  -0.010512474099672 1
force S   0.000000000000000   0.000000000000000   0.010512474099673 1
force S  -0.000000000000000   0.000000000000000  -0.010512474099671 1
force S  -0.000000000000000  -0.000000000000000   0.010512474099786 1
force S  -0.000000000000000   0.000000000000000  -0.010512474099674 1
force S   0.000000000000000  -0.000000000000000   0.010512474099673 1
force S  -0.000000000000000   0.000000000000000  -0.010512474099559 1
force S   0.000000000000000  -0.000000000000000   0.010512474099787 1
force S   0.000000000000000   0.000000000000000  -0.010512474099674 1
force S  -0.000000000000000  -0.000000000000000   0.010512474099673 1
force S   0.000000000000000   0.000000000000000  -0.010512474099559 1
force S   0.000000000000000  -0.000000000000000   0.010512474099786 1
force S   0.000000000000000  -0.000000000000000  -0.010512474099559 1
force S  -0.000000000000000  -0.000000000000000   0.010512474099673 1
force S   0.000000000000000   0.000000000000000  -0.010512474099787 1
force S   0.000000000000000   0.000000000000000   0.010512474099787 1
force S   0.000000000000000   0.000000000000000  -0.010512474099558 1
force S  -0.000000000000000  -0.000000000000000   0.010512474099673 1
force S   0.000000000000000   0.000000000000000  -0.010512474099786 1

# Energy components:
   A_diel =       -0.1012448446346673
   Eewald =     7269.5185627740620475
       EH =     8313.7314014077292086
     Eloc =   -16856.6669744558712409
      Enl =     -222.9949138693489772
      Exc =     -473.5633993274984164
 Exc_core =      252.5823485118696397
       KE =      447.4610685673339958
  MuShift =       -0.0105535712440920
-------------------------------------
     Etot =    -1270.0437048076014435
       TS =        0.0839147414785424
-------------------------------------
        F =    -1270.1276195490800092

IonicMinimize: Iter:   0  F: -1270.127619549080009  |grad|_K:  1.446e-04  t[s]:   5067.19

#--- Lowdin population analysis ---
# oxidation-state Ta -0.406 -0.406 -0.406 -0.406 -0.406 -0.406 -0.406 -0.406 -0.406 -0.406 -0.406 -0.406 -0.406 -0.406 -0.406 -0.406
# magnetic-moments Ta +0.000 +0.000 +0.000 +0.000 +0.000 +0.000 +0.000 +0.000 +0.000 +0.000 +0.000 +0.000 +0.000 +0.000 +0.000 +0.000
# oxidation-state S +0.228 +0.228 +0.228 +0.228 +0.228 +0.228 +0.228 +0.228 +0.228 +0.228 +0.228 +0.228 +0.228 +0.228 +0.228 +0.228 +0.228 +0.228 +0.228 +0.228 +0.228 +0.228 +0.228 +0.228 +0.228 +0.228 +0.228 +0.228 +0.228 +0.228 +0.228 +0.228
# magnetic-moments S +0.000 +0.000 +0.000 +0.000 +0.000 +0.000 +0.000 +0.000 +0.000 +0.000 +0.000 +0.000 +0.000 +0.000 +0.000 +0.000 +0.000 +0.000 +0.000 +0.000 +0.000 +0.000 +0.000 +0.000 +0.000 +0.000 +0.000 +0.000 +0.000 +0.000 +0.000 +0.000

	Linear fluid (dielectric constant: 78.4, screening length: 5.74355 Bohr) occupying 0.759057 of unit cell:	Completed after 2 iterations at t[s]:   5097.21

-------- Electronic minimization -----------
	Linear fluid (dielectric constant: 78.4, screening length: 5.74355 Bohr) occupying 0.759057 of unit cell:	Completed after 0 iterations at t[s]:   5119.68
	FillingsUpdate:  mu: -0.191974488  nElectrons: 401.000000  magneticMoment: [ Abs: 0.00001  Tot: +0.00000 ]
ElecMinimize: Iter:   0  F: -1270.127621721809646  |grad|_K:  5.411e-08  alpha:  1.000e+00
	Linear fluid (dielectric constant: 78.4, screening length: 5.74355 Bohr) occupying 0.759058 of unit cell:	Completed after 2 iterations at t[s]:   5191.85
	Linear fluid (dielectric constant: 78.4, screening length: 5.74355 Bohr) occupying 0.759058 of unit cell:	Completed after 0 iterations at t[s]:   5221.98
	FillingsUpdate:  mu: -0.192029785  nElectrons: 401.000000  magneticMoment: [ Abs: 0.00001  Tot: +0.00000 ]
	SubspaceRotationAdjust: set factor to 0.6
ElecMinimize: Iter:   1  F: -1270.127622193875141  |grad|_K:  5.175e-08  alpha:  6.947e-01  linmin:  9.359e-04  t[s]:   5261.16
	Linear fluid (dielectric constant: 78.4, screening length: 5.74355 Bohr) occupying 0.759061 of unit cell:	Completed after 3 iterations at t[s]:   5290.07
	Linear fluid (dielectric constant: 78.4, screening length: 5.74355 Bohr) occupying 0.759059 of unit cell:	Completed after 0 iterations at t[s]:   5320.41
	FillingsUpdate:  mu: -0.191965450  nElectrons: 401.000000  magneticMoment: [ Abs: 0.00000  Tot: +0.00000 ]
	SubspaceRotationAdjust: set factor to 0.272
ElecMinimize: Iter:   2  F: -1270.127622261823944  |grad|_K:  1.623e-08  alpha:  2.303e-01  linmin:  2.032e-04  t[s]:   5359.63
	Linear fluid (dielectric constant: 78.4, screening length: 5.74355 Bohr) occupying 0.759059 of unit cell:	Completed after 0 iterations at t[s]:   5387.67
	Linear fluid (dielectric constant: 78.4, screening length: 5.74355 Bohr) occupying 0.759059 of unit cell:	Completed after 0 iterations at t[s]:   5416.94
	FillingsUpdate:  mu: -0.191969384  nElectrons: 401.000000  magneticMoment: [ Abs: 0.00000  Tot: +0.00000 ]
	SubspaceRotationAdjust: set factor to 0.404
ElecMinimize: Iter:   3  F: -1270.127622266377330  |grad|_K:  1.128e-08  alpha:  1.771e-01  linmin: -1.828e-04  t[s]:   5456.10
	Linear fluid (dielectric constant: 78.4, screening length: 5.74355 Bohr) occupying 0.759059 of unit cell:	Completed after 0 iterations at t[s]:   5484.96
	Linear fluid (dielectric constant: 78.4, screening length: 5.74355 Bohr) occupying 0.759059 of unit cell:	Completed after 0 iterations at t[s]:   5514.28
	FillingsUpdate:  mu: -0.191969183  nElectrons: 401.000000  magneticMoment: [ Abs: 0.00000  Tot: +0.00000 ]
	SubspaceRotationAdjust: set factor to 0.471
ElecMinimize: Iter:   4  F: -1270.127622286667474  |grad|_K:  7.441e-09  alpha:  4.435e-01  linmin: -2.794e-06  t[s]:   5553.62
	Linear fluid (dielectric constant: 78.4, screening length: 5.74355 Bohr) occupying 0.759059 of unit cell:	Completed after 0 iterations at t[s]:   5581.99
	Linear fluid (dielectric constant: 78.4, screening length: 5.74355 Bohr) occupying 0.759059 of unit cell:	Completed after 0 iterations at t[s]:   5612.19
	FillingsUpdate:  mu: -0.191968794  nElectrons: 401.000000  magneticMoment: [ Abs: 0.00000  Tot: +0.00000 ]
	SubspaceRotationAdjust: set factor to 0.627
ElecMinimize: Iter:   5  F: -1270.127622294010280  |grad|_K:  7.665e-09  alpha:  5.989e-01  linmin: -6.362e-07  t[s]:   5651.45
	Linear fluid (dielectric constant: 78.4, screening length: 5.74355 Bohr) occupying 0.759058 of unit cell:	Completed after 0 iterations at t[s]:   5679.19
	Linear fluid (dielectric constant: 78.4, screening length: 5.74355 Bohr) occupying 0.759058 of unit cell:	Completed after 0 iterations at t[s]:   5708.93
	FillingsUpdate:  mu: -0.191968141  nElectrons: 401.000000  magneticMoment: [ Abs: 0.00000  Tot: +0.00000 ]
	SubspaceRotationAdjust: set factor to 0.733
ElecMinimize: Iter:   6  F: -1270.127622301472911  |grad|_K:  6.977e-09  alpha:  5.861e-01  linmin:  1.941e-08  t[s]:   5748.28
ElecMinimize: Converged (|Delta F|<1.000000e-08 for 2 iters).
Setting wave functions to eigenvectors of Hamiltonian

# Ionic positions in lattice coordinates:
ion Ta   0.166667780131944   0.083332222888888   0.499999991333335 1
ion Ta   0.416667780131944   0.083332222888888   0.499999991333335 1
ion Ta   0.666667780131944   0.083332222888888   0.499999991333335 1
ion Ta   0.916667780131944   0.083332222888888   0.499999991333335 1
ion Ta   0.166667780131944   0.333332222888888   0.499999991333335 1
ion Ta   0.416667780131944   0.333332222888888   0.499999991333335 1
ion Ta   0.666667780131944   0.333332222888888   0.499999991333335 1
ion Ta   0.916667780131944   0.333332222888888   0.499999991333335 1
ion Ta   0.166667780131944   0.583332222888888   0.499999991333335 1
ion Ta   0.416667780131944   0.583332222888888   0.499999991333335 1
ion Ta   0.666667780131944   0.583332222888888   0.499999991333335 1
ion Ta   0.916667780131944   0.583332222888888   0.499999991333335 1
ion Ta   0.166667780131944   0.833332222888888   0.499999991333335 1
ion Ta   0.416667780131944   0.833332222888888   0.499999991333335 1
ion Ta   0.666667780131944   0.833332222888888   0.499999991333335 1
ion Ta   0.916667780131944   0.833332222888888   0.499999991333335 1
ion S   0.000001113465278  -0.000001110444445   0.586328934789236 1
ion S   0.000001113465278  -0.000001110444445   0.413671047877434 1
ion S   0.250001113465278  -0.000001110444445   0.586328934789236 1
ion S   0.250001113465278  -0.000001110444445   0.413671047877434 1
ion S   0.500001113465278  -0.000001110444445   0.586328934789236 1
ion S   0.500001113465278  -0.000001110444445   0.413671047877434 1
ion S   0.750001113465278  -0.000001110444445   0.586328934789236 1
ion S   0.750001113465278  -0.000001110444445   0.413671047877434 1
ion S   0.000001113465278   0.249998889555555   0.586328934789236 1
ion S   0.000001113465278   0.249998889555555   0.413671047877434 1
ion S   0.250001113465278   0.249998889555555   0.586328934789236 1
ion S   0.250001113465278   0.249998889555555   0.413671047877434 1
ion S   0.500001113465278   0.249998889555555   0.586328934789236 1
ion S   0.500001113465278   0.249998889555555   0.413671047877434 1
ion S   0.750001113465278   0.249998889555555   0.586328934789236 1
ion S   0.750001113465278   0.249998889555555   0.413671047877434 1
ion S   0.000001113465278   0.499998889555555   0.586328934789236 1
ion S   0.000001113465278   0.499998889555555   0.413671047877434 1
ion S   0.250001113465278   0.499998889555555   0.586328934789236 1
ion S   0.250001113465278   0.499998889555555   0.413671047877434 1
ion S   0.500001113465278   0.499998889555555   0.586328934789236 1
ion S   0.500001113465278   0.499998889555555   0.413671047877434 1
ion S   0.750001113465278   0.499998889555555   0.586328934789236 1
ion S   0.750001113465278   0.499998889555555   0.413671047877434 1
ion S   0.000001113465278   0.749998889555555   0.586328934789236 1
ion S   0.000001113465278   0.749998889555555   0.413671047877434 1
ion S   0.250001113465278   0.749998889555555   0.586328934789236 1
ion S   0.250001113465278   0.749998889555555   0.413671047877434 1
ion S   0.500001113465278   0.749998889555555   0.586328934789236 1
ion S   0.500001113465278   0.749998889555555   0.413671047877434 1
ion S   0.750001113465278   0.749998889555555   0.586328934789236 1
ion S   0.750001113465278   0.749998889555555   0.413671047877434 1


# Forces in Lattice coordinates:
force Ta  -0.000000000000000   0.000000000000000   0.000000000000000 1
force Ta   0.000000000000000   0.000000000000000  -0.000000000000000 1
force Ta  -0.000000000000000   0.000000000000000  -0.000000000000000 1
force Ta  -0.000000000000000  -0.000000000000000  -0.000000000000000 1
force Ta   0.000000000000000  -0.000000000000000   0.000000000000000 1
force Ta   0.000000000000000  -0.000000000000000  -0.000000000000000 1
force Ta   0.000000000000000  -0.000000000000000  -0.000000000000000 1
force Ta   0.000000000000000  -0.000000000000000   0.000000000000000 1
force Ta  -0.000000000000000  -0.000000000000000  -0.000000000000000 1
force Ta  -0.000000000000000  -0.000000000000000  -0.000000000000000 1
force Ta  -0.000000000000000   0.000000000000000  -0.000000000000000 1
force Ta   0.000000000000000  -0.000000000000000   0.000000000000000 1
force Ta   0.000000000000000   0.000000000000000   0.000000000000000 1
force Ta  -0.000000000000000   0.000000000000000   0.000000000000000 1
force Ta  -0.000000000000000  -0.000000000000000  -0.000000000000000 1
force Ta  -0.000000000000000   0.000000000000000  -0.000000000000000 1
force S  -0.000000000000000   0.000000000000000   0.008938924009154 1
force S   0.000000000000000  -0.000000000000000  -0.008938924009268 1
force S   0.000000000000000  -0.000000000000000   0.008938924009154 1
force S   0.000000000000000  -0.000000000000000  -0.008938924008928 1
force S   0.000000000000000   0.000000000000000   0.008938924009040 1
force S  -0.000000000000000  -0.000000000000000  -0.008938924009268 1
force S  -0.000000000000000   0.000000000000000   0.008938924009154 1
force S  -0.000000000000000  -0.000000000000000  -0.008938924008927 1
force S  -0.000000000000000   0.000000000000000   0.008938924009041 1
force S  -0.000000000000000  -0.000000000000000  -0.008938924009041 1
force S   0.000000000000000   0.000000000000000   0.008938924009155 1
force S   0.000000000000000   0.000000000000000  -0.008938924009042 1
force S   0.000000000000000  -0.000000000000000   0.008938924009154 1
force S   0.000000000000000  -0.000000000000000  -0.008938924009041 1
force S  -0.000000000000000  -0.000000000000000   0.008938924009041 1
force S   0.000000000000000   0.000000000000000  -0.008938924009041 1
force S   0.000000000000000   0.000000000000000   0.008938924009155 1
force S  -0.000000000000000  -0.000000000000000  -0.008938924009041 1
force S   0.000000000000000   0.000000000000000   0.008938924009155 1
force S  -0.000000000000000   0.000000000000000  -0.008938924009041 1
force S   0.000000000000000  -0.000000000000000   0.008938924009154 1
force S  -0.000000000000000  -0.000000000000000  -0.008938924009154 1
force S   0.000000000000000   0.000000000000000   0.008938924009041 1
force S  -0.000000000000000  -0.000000000000000  -0.008938924009041 1
force S   0.000000000000000  -0.000000000000000   0.008938924009155 1
force S  -0.000000000000000  -0.000000000000000  -0.008938924009269 1
force S   0.000000000000000  -0.000000000000000   0.008938924009155 1
force S  -0.000000000000000   0.000000000000000  -0.008938924009155 1
force S  -0.000000000000000   0.000000000000000   0.008938924009154 1
force S  -0.000000000000000  -0.000000000000000  -0.008938924009155 1
force S   0.000000000000000  -0.000000000000000   0.008938924009041 1
force S  -0.000000000000000  -0.000000000000000  -0.008938924009269 1

# Energy components:
   A_diel =       -0.1012456267131044
   Eewald =     7269.3485356697328825
       EH =     8313.5513191706431826
     Eloc =   -16856.3141241533448920
      Enl =     -222.9933041861214065
      Exc =     -473.5612450267843201
 Exc_core =      252.5823478526824886
       KE =      447.4545698157776314
  MuShift =       -0.0105535712440920
-------------------------------------
     Etot =    -1270.0437000553711187
       TS =        0.0839222461018814
-------------------------------------
        F =    -1270.1276223014729112

IonicMinimize: Iter:   1  F: -1270.127622301472911  |grad|_K:  1.230e-04  alpha:  1.000e+00  linmin: -1.000e+00  t[s]:   5769.29

#--- Lowdin population analysis ---
# oxidation-state Ta -0.406 -0.406 -0.406 -0.406 -0.406 -0.406 -0.406 -0.406 -0.406 -0.406 -0.406 -0.406 -0.406 -0.406 -0.406 -0.406
# magnetic-moments Ta +0.000 +0.000 +0.000 +0.000 +0.000 +0.000 +0.000 +0.000 +0.000 +0.000 +0.000 +0.000 +0.000 +0.000 +0.000 +0.000
# oxidation-state S +0.228 +0.228 +0.228 +0.228 +0.228 +0.228 +0.228 +0.228 +0.228 +0.228 +0.228 +0.228 +0.228 +0.228 +0.228 +0.228 +0.228 +0.228 +0.228 +0.228 +0.228 +0.228 +0.228 +0.228 +0.228 +0.228 +0.228 +0.228 +0.228 +0.228 +0.228 +0.228
# magnetic-moments S +0.000 +0.000 +0.000 +0.000 +0.000 +0.000 +0.000 +0.000 +0.000 +0.000 +0.000 +0.000 +0.000 +0.000 +0.000 +0.000 +0.000 +0.000 +0.000 +0.000 +0.000 +0.000 +0.000 +0.000 +0.000 +0.000 +0.000 +0.000 +0.000 +0.000 +0.000 +0.000

	Linear fluid (dielectric constant: 78.4, screening length: 5.74355 Bohr) occupying 0.758998 of unit cell:	Completed after 4 iterations at t[s]:   5799.44

-------- Electronic minimization -----------
	Linear fluid (dielectric constant: 78.4, screening length: 5.74355 Bohr) occupying 0.758998 of unit cell:	Completed after 0 iterations at t[s]:   5823.28
	FillingsUpdate:  mu: -0.191776148  nElectrons: 401.000000  magneticMoment: [ Abs: 0.00006  Tot: +0.00000 ]
ElecMinimize: Iter:   0  F: -1270.127608038488006  |grad|_K:  3.297e-07  alpha:  1.000e+00
	Linear fluid (dielectric constant: 78.4, screening length: 5.74355 Bohr) occupying 0.758999 of unit cell:	Completed after 6 iterations at t[s]:   5895.82
	Linear fluid (dielectric constant: 78.4, screening length: 5.74355 Bohr) occupying 0.758998 of unit cell:	Completed after 3 iterations at t[s]:   5927.91
	FillingsUpdate:  mu: -0.192323062  nElectrons: 401.000000  magneticMoment: [ Abs: 0.00004  Tot: +0.00000 ]
	SubspaceRotationAdjust: set factor to 0.491
ElecMinimize: Iter:   1  F: -1270.127620393056077  |grad|_K:  2.386e-07  alpha:  5.272e-01  linmin:  1.413e-04  t[s]:   5969.24
	Linear fluid (dielectric constant: 78.4, screening length: 5.74355 Bohr) occupying 0.759012 of unit cell:	Completed after 6 iterations at t[s]:   5998.19
	Linear fluid (dielectric constant: 78.4, screening length: 5.74355 Bohr) occupying 0.759011 of unit cell:	Completed after 0 iterations at t[s]:   6029.60
	FillingsUpdate:  mu: -0.191951278  nElectrons: 401.000000  magneticMoment: [ Abs: 0.00002  Tot: +0.00000 ]
	SubspaceRotationAdjust: set factor to 0.489
ElecMinimize: Iter:   2  F: -1270.127626317771501  |grad|_K:  8.250e-08  alpha:  4.857e-01  linmin:  4.763e-05  t[s]:   6068.60
	Linear fluid (dielectric constant: 78.4, screening length: 5.74355 Bohr) occupying 0.759013 of unit cell:	Completed after 0 iterations at t[s]:   6097.10
	Linear fluid (dielectric constant: 78.4, screening length: 5.74355 Bohr) occupying 0.759014 of unit cell:	Completed after 2 iterations at t[s]:   6126.70
	FillingsUpdate:  mu: -0.191974081  nElectrons: 401.000000  magneticMoment: [ Abs: 0.00001  Tot: +0.00000 ]
	SubspaceRotationAdjust: set factor to 0.536
ElecMinimize: Iter:   3  F: -1270.127627326610309  |grad|_K:  3.763e-08  alpha:  8.056e-01  linmin:  2.823e-04  t[s]:   6166.89
	Linear fluid (dielectric constant: 78.4, screening length: 5.74355 Bohr) occupying 0.759015 of unit cell:	Completed after 0 iterations at t[s]:   6195.26
	Linear fluid (dielectric constant: 78.4, screening length: 5.74355 Bohr) occupying 0.759015 of unit cell:	Completed after 0 iterations at t[s]:   6224.86
	FillingsUpdate:  mu: -0.191974194  nElectrons: 401.000000  magneticMoment: [ Abs: 0.00001  Tot: +0.00000 ]
	SubspaceRotationAdjust: set factor to 0.583
ElecMinimize: Iter:   4  F: -1270.127627474590327  |grad|_K:  1.837e-08  alpha:  5.370e-01  linmin: -1.087e-07  t[s]:   6264.04
	Linear fluid (dielectric constant: 78.4, screening length: 5.74355 Bohr) occupying 0.759015 of unit cell:	Completed after 0 iterations at t[s]:   6292.70
	Linear fluid (dielectric constant: 78.4, screening length: 5.74355 Bohr) occupying 0.759015 of unit cell:	Completed after 0 iterations at t[s]:   6321.75
	FillingsUpdate:  mu: -0.191974484  nElectrons: 401.000000  magneticMoment: [ Abs: 0.00001  Tot: +0.00000 ]
	SubspaceRotationAdjust: set factor to 0.67
ElecMinimize: Iter:   5  F: -1270.127627515632412  |grad|_K:  1.056e-08  alpha:  5.619e-01  linmin:  4.126e-07  t[s]:   6360.64
	Linear fluid (dielectric constant: 78.4, screening length: 5.74355 Bohr) occupying 0.759014 of unit cell:	Completed after 0 iterations at t[s]:   6388.47
	Linear fluid (dielectric constant: 78.4, screening length: 5.74355 Bohr) occupying 0.759014 of unit cell:	Completed after 0 iterations at t[s]:   6417.77
	FillingsUpdate:  mu: -0.191974846  nElectrons: 401.000000  magneticMoment: [ Abs: 0.00000  Tot: +0.00000 ]
	SubspaceRotationAdjust: set factor to 0.773
ElecMinimize: Iter:   6  F: -1270.127627530220025  |grad|_K:  7.915e-09  alpha:  6.051e-01  linmin:  1.433e-07  t[s]:   6457.41
	Linear fluid (dielectric constant: 78.4, screening length: 5.74355 Bohr) occupying 0.759014 of unit cell:	Completed after 2 iterations at t[s]:   6485.48
	Linear fluid (dielectric constant: 78.4, screening length: 5.74355 Bohr) occupying 0.759014 of unit cell:	Completed after 0 iterations at t[s]:   6515.30
ElecMinimize: 	Step increased F by 6.247728e-08, reducing alpha to 4.390479e-03.
	Linear fluid (dielectric constant: 78.4, screening length: 5.74355 Bohr) occupying 0.759014 of unit cell:	Completed after 0 iterations at t[s]:   6577.26
ElecMinimize: 	Step increased F by 6.056575e-08, reducing alpha to 4.390479e-04.
	Linear fluid (dielectric constant: 78.4, screening length: 5.74355 Bohr) occupying 0.759014 of unit cell:	Completed after 0 iterations at t[s]:   6639.14
ElecMinimize: 	Step increased F by 6.037089e-08, reducing alpha to 4.390479e-05.
ElecMinimize: 	Step failed to reduce F after 3 attempts. Quitting step.
ElecMinimize: 	Undoing step.
	Linear fluid (dielectric constant: 78.4, screening length: 5.74355 Bohr) occupying 0.759014 of unit cell:	Completed after 0 iterations at t[s]:   6700.30
ElecMinimize: 	Step failed: resetting search direction.
	FillingsUpdate:  mu: -0.191945319  nElectrons: 401.000000  magneticMoment: [ Abs: 0.00000  Tot: +0.00000 ]
	SubspaceRotationAdjust: set factor to 0.533
ElecMinimize: Iter:   7  F: -1270.127627469796835  |grad|_K:  3.048e-08  alpha:  4.390e-05
	Linear fluid (dielectric constant: 78.4, screening length: 5.74355 Bohr) occupying 0.759014 of unit cell:	Completed after 2 iterations at t[s]:   6767.04
	Linear fluid (dielectric constant: 78.4, screening length: 5.74355 Bohr) occupying 0.759014 of unit cell:	Completed after 0 iterations at t[s]:   6797.33
	FillingsUpdate:  mu: -0.192003243  nElectrons: 401.000000  magneticMoment: [ Abs: 0.00000  Tot: +0.00000 ]
	SubspaceRotationAdjust: set factor to 0.255
ElecMinimize: Iter:   8  F: -1270.127627548045666  |grad|_K:  2.466e-08  alpha:  2.433e-01  linmin:  6.410e-04  t[s]:   6837.71
	Linear fluid (dielectric constant: 78.4, screening length: 5.74355 Bohr) occupying 0.759014 of unit cell:	Completed after 0 iterations at t[s]:   6865.63
	Linear fluid (dielectric constant: 78.4, screening length: 5.74355 Bohr) occupying 0.759014 of unit cell:	Completed after 0 iterations at t[s]:   6894.64
	FillingsUpdate:  mu: -0.192000417  nElectrons: 401.000000  magneticMoment: [ Abs: 0.00000  Tot: +0.00000 ]
	SubspaceRotationAdjust: set factor to 0.262
ElecMinimize: Iter:   9  F: -1270.127627548482678  |grad|_K:  1.936e-08  alpha:  6.285e-01  linmin:  2.112e-06  t[s]:   6934.03
	Linear fluid (dielectric constant: 78.4, screening length: 5.74355 Bohr) occupying 0.759014 of unit cell:	Completed after 1 iterations at t[s]:   6961.67
	Linear fluid (dielectric constant: 78.4, screening length: 5.74355 Bohr) occupying 0.759014 of unit cell:	Completed after 0 iterations at t[s]:   6991.63
ElecMinimize: 	Step increased F by 2.799925e-08, reducing alpha to 1.500831e-02.
	Linear fluid (dielectric constant: 78.4, screening length: 5.74355 Bohr) occupying 0.759014 of unit cell:	Completed after 0 iterations at t[s]:   7053.58
ElecMinimize: 	Step increased F by 1.048329e-08, reducing alpha to 1.500831e-03.
	Linear fluid (dielectric constant: 78.4, screening length: 5.74355 Bohr) occupying 0.759014 of unit cell:	Completed after 0 iterations at t[s]:   7115.50
ElecMinimize: 	Step increased F by 8.804818e-09, reducing alpha to 1.500831e-04.
ElecMinimize: 	Step failed to reduce F after 3 attempts. Quitting step.
ElecMinimize: 	Undoing step.
	Linear fluid (dielectric constant: 78.4, screening length: 5.74355 Bohr) occupying 0.759014 of unit cell:	Completed after 0 iterations at t[s]:   7176.78
ElecMinimize: 	Step failed: resetting search direction.
	FillingsUpdate:  mu: -0.191938743  nElectrons: 401.000000  magneticMoment: [ Abs: 0.00000  Tot: +0.00000 ]
	SubspaceRotationAdjust: set factor to 0.179
ElecMinimize: Iter:  10  F: -1270.127627539707646  |grad|_K:  2.113e-08  alpha:  1.501e-04
	Linear fluid (dielectric constant: 78.4, screening length: 5.74355 Bohr) occupying 0.759014 of unit cell:	Completed after 2 iterations at t[s]:   7244.32
	Linear fluid (dielectric constant: 78.4, screening length: 5.74355 Bohr) occupying 0.759014 of unit cell:	Completed after 0 iterations at t[s]:   7274.10
ElecMinimize: 	Step increased F by 1.748890e-08, reducing alpha to 1.910265e-02.
	Linear fluid (dielectric constant: 78.4, screening length: 5.74355 Bohr) occupying 0.759014 of unit cell:	Completed after 0 iterations at t[s]:   7335.60
ElecMinimize: 	Step increased F by 1.791295e-08, reducing alpha to 1.910265e-03.
	Linear fluid (dielectric constant: 78.4, screening length: 5.74355 Bohr) occupying 0.759014 of unit cell:	Completed after 0 iterations at t[s]:   7397.35
ElecMinimize: 	Step increased F by 1.726971e-08, reducing alpha to 1.910265e-04.
ElecMinimize: 	Step failed to reduce F after 3 attempts. Quitting step.
ElecMinimize: 	Undoing step.
	Linear fluid (dielectric constant: 78.4, screening length: 5.74355 Bohr) occupying 0.759014 of unit cell:	Completed after 0 iterations at t[s]:   7459.33
ElecMinimize: 	Step failed along negative gradient direction.
ElecMinimize: Probably at roundoff error limit. (Stopping)
Setting wave functions to eigenvectors of Hamiltonian

# Ionic positions in lattice coordinates:
ion Ta   0.166667780131944   0.083332222888888   0.499999991333335 1
ion Ta   0.416667780131944   0.083332222888888   0.499999991333335 1
ion Ta   0.666667780131944   0.083332222888888   0.499999991333335 1
ion Ta   0.916667780131944   0.083332222888888   0.499999991333335 1
ion Ta   0.166667780131944   0.333332222888888   0.499999991333335 1
ion Ta   0.416667780131944   0.333332222888888   0.499999991333335 1
ion Ta   0.666667780131944   0.333332222888888   0.499999991333335 1
ion Ta   0.916667780131944   0.333332222888888   0.499999991333335 1
ion Ta   0.166667780131944   0.583332222888888   0.499999991333335 1
ion Ta   0.416667780131944   0.583332222888888   0.499999991333335 1
ion Ta   0.666667780131944   0.583332222888888   0.499999991333335 1
ion Ta   0.916667780131944   0.583332222888888   0.499999991333335 1
ion Ta   0.166667780131944   0.833332222888888   0.499999991333335 1
ion Ta   0.416667780131944   0.833332222888888   0.499999991333335 1
ion Ta   0.666667780131944   0.833332222888888   0.499999991333335 1
ion Ta   0.916667780131944   0.833332222888888   0.499999991333335 1
ion S   0.000001113465278  -0.000001110444445   0.586379808377724 1
ion S   0.000001113465278  -0.000001110444445   0.413620174288946 1
ion S   0.250001113465278  -0.000001110444445   0.586379808377724 1
ion S   0.250001113465278  -0.000001110444445   0.413620174288946 1
ion S   0.500001113465278  -0.000001110444445   0.586379808377724 1
ion S   0.500001113465278  -0.000001110444445   0.413620174288946 1
ion S   0.750001113465278  -0.000001110444445   0.586379808377724 1
ion S   0.750001113465278  -0.000001110444445   0.413620174288946 1
ion S   0.000001113465278   0.249998889555555   0.586379808377724 1
ion S   0.000001113465278   0.249998889555555   0.413620174288946 1
ion S   0.250001113465278   0.249998889555555   0.586379808377724 1
ion S   0.250001113465278   0.249998889555555   0.413620174288946 1
ion S   0.500001113465278   0.249998889555555   0.586379808377724 1
ion S   0.500001113465278   0.249998889555555   0.413620174288946 1
ion S   0.750001113465278   0.249998889555555   0.586379808377724 1
ion S   0.750001113465278   0.249998889555555   0.413620174288946 1
ion S   0.000001113465278   0.499998889555555   0.586379808377724 1
ion S   0.000001113465278   0.499998889555555   0.413620174288946 1
ion S   0.250001113465278   0.499998889555555   0.586379808377724 1
ion S   0.250001113465278   0.499998889555555   0.413620174288946 1
ion S   0.500001113465278   0.499998889555555   0.586379808377724 1
ion S   0.500001113465278   0.499998889555555   0.413620174288946 1
ion S   0.750001113465278   0.499998889555555   0.586379808377724 1
ion S   0.750001113465278   0.499998889555555   0.413620174288946 1
ion S   0.000001113465278   0.749998889555555   0.586379808377724 1
ion S   0.000001113465278   0.749998889555555   0.413620174288946 1
ion S   0.250001113465278   0.749998889555555   0.586379808377724 1
ion S   0.250001113465278   0.749998889555555   0.413620174288946 1
ion S   0.500001113465278   0.749998889555555   0.586379808377724 1
ion S   0.500001113465278   0.749998889555555   0.413620174288946 1
ion S   0.750001113465278   0.749998889555555   0.586379808377724 1
ion S   0.750001113465278   0.749998889555555   0.413620174288946 1


# Forces in Lattice coordinates:
force Ta  -0.000000000000000  -0.000000000000000  -0.000000000000000 1
force Ta   0.000000000000000  -0.000000000000000   0.000000000000000 1
force Ta  -0.000000000000000  -0.000000000000000   0.000000000000000 1
force Ta   0.000000000000000   0.000000000000000  -0.000000000000000 1
force Ta  -0.000000000000000   0.000000000000000  -0.000000000000000 1
force Ta   0.000000000000000  -0.000000000000000   0.000000000000000 1
force Ta  -0.000000000000000  -0.000000000000000   0.000000000000000 1
force Ta   0.000000000000000   0.000000000000000   0.000000000000000 1
force Ta   0.000000000000000  -0.000000000000000  -0.000000000000000 1
force Ta  -0.000000000000000  -0.000000000000000   0.000000000000000 1
force Ta   0.000000000000000  -0.000000000000000   0.000000000000000 1
force Ta  -0.000000000000000  -0.000000000000000   0.000000000000000 1
force Ta  -0.000000000000000  -0.000000000000000   0.000000000000000 1
force Ta  -0.000000000000000  -0.000000000000000  -0.000000000000000 1
force Ta   0.000000000000000  -0.000000000000000  -0.000000000000000 1
force Ta  -0.000000000000000  -0.000000000000000  -0.000000000000000 1
force S  -0.000000000000000  -0.000000000000000  -0.000479046879207 1
force S  -0.000000000000000  -0.000000000000000   0.000479046879322 1
force S  -0.000000000000000   0.000000000000000  -0.000479046879093 1
force S   0.000000000000000   0.000000000000000   0.000479046879095 1
force S  -0.000000000000000  -0.000000000000000  -0.000479046879207 1
force S   0.000000000000000   0.000000000000000   0.000479046879096 1
force S   0.000000000000000  -0.000000000000000  -0.000479046879320 1
force S  -0.000000000000000   0.000000000000000   0.000479046879209 1
force S  -0.000000000000000  -0.000000000000000  -0.000479046879323 1
force S  -0.000000000000000   0.000000000000000   0.000479046879208 1
force S  -0.000000000000000   0.000000000000000  -0.000479046879208 1
force S   0.000000000000000  -0.000000000000000   0.000479046879095 1
force S  -0.000000000000000  -0.000000000000000  -0.000479046879093 1
force S   0.000000000000000   0.000000000000000   0.000479046879209 1
force S  -0.000000000000000  -0.000000000000000  -0.000479046879321 1
force S   0.000000000000000   0.000000000000000   0.000479046879209 1
force S  -0.000000000000000  -0.000000000000000  -0.000479046879321 1
force S  -0.000000000000000   0.000000000000000   0.000479046879207 1
force S  -0.000000000000000  -0.000000000000000  -0.000479046879321 1
force S   0.000000000000000  -0.000000000000000   0.000479046879322 1
force S  -0.000000000000000  -0.000000000000000  -0.000479046879321 1
force S   0.000000000000000   0.000000000000000   0.000479046879208 1
force S  -0.000000000000000  -0.000000000000000  -0.000479046879321 1
force S   0.000000000000000   0.000000000000000   0.000479046879323 1
force S  -0.000000000000000  -0.000000000000000  -0.000479046879208 1
force S   0.000000000000000   0.000000000000000   0.000479046879321 1
force S  -0.000000000000000  -0.000000000000000  -0.000479046879320 1
force S   0.000000000000000   0.000000000000000   0.000479046879322 1
force S  -0.000000000000000  -0.000000000000000  -0.000479046879207 1
force S  -0.000000000000000   0.000000000000000   0.000479046879322 1
force S   0.000000000000000  -0.000000000000000  -0.000479046879321 1
force S   0.000000000000000   0.000000000000000   0.000479046879095 1

# Energy components:
   A_diel =       -0.1012259587177737
   Eewald =     7268.3826340457071638
       EH =     8312.6141193632975046
     Eloc =   -16854.3929740543098887
      Enl =     -222.9931729725768719
      Exc =     -473.5505042253770398
 Exc_core =      252.5823441241305147
       KE =      447.4256693547437180
  MuShift =       -0.0105535712440920
-------------------------------------
     Etot =    -1270.0436638943460821
       TS =        0.0839636280403770
-------------------------------------
        F =    -1270.1276275223865468

IonicMinimize: Iter:   2  F: -1270.127627522386547  |grad|_K:  6.591e-06  alpha:  1.000e+00  linmin:  1.000e+00  t[s]:   7519.43
IonicMinimize: Converged (|grad|_K<1.000000e-04).

#--- Lowdin population analysis ---
# oxidation-state Ta -0.406 -0.406 -0.406 -0.406 -0.406 -0.406 -0.406 -0.406 -0.406 -0.406 -0.406 -0.406 -0.406 -0.406 -0.406 -0.406
# magnetic-moments Ta +0.000 +0.000 +0.000 +0.000 +0.000 +0.000 +0.000 +0.000 +0.000 +0.000 +0.000 +0.000 +0.000 +0.000 +0.000 +0.000
# oxidation-state S +0.228 +0.228 +0.228 +0.228 +0.228 +0.228 +0.228 +0.228 +0.228 +0.228 +0.228 +0.228 +0.228 +0.228 +0.228 +0.228 +0.228 +0.228 +0.228 +0.228 +0.228 +0.228 +0.228 +0.228 +0.228 +0.228 +0.228 +0.228 +0.228 +0.228 +0.228 +0.228
# magnetic-moments S -0.000 -0.000 -0.000 -0.000 -0.000 -0.000 -0.000 -0.000 -0.000 -0.000 -0.000 -0.000 -0.000 -0.000 -0.000 -0.000 -0.000 -0.000 -0.000 -0.000 -0.000 -0.000 -0.000 -0.000 -0.000 -0.000 -0.000 -0.000 -0.000 -0.000 -0.000 -0.000


Dumping 'NbTe2.fillings' ... done
Dumping 'NbTe2.wfns' ... done
Dumping 'NbTe2.fluidState' ... done
Dumping 'NbTe2.ionpos' ... done
Dumping 'NbTe2.eigenvals' ... done
End date and time: Thu Jan  7 13:40:25 2021  (Duration: 0-2:05:31.37)
Done!
