
*************** JDFTx 1.5.0  ***************

Start date and time: Thu Feb  4 01:41:31 2021
Executable jdftx_gpu with command-line: -i Charged.in -o Charged.out
Running on hosts (process indices):  amax (0-6)
Divided in process groups (process indices):  0 (0)  1 (1)  2 (2)  3 (3)  4 (4)  5 (5)  6 (6)
gpuInit: Found compatible cuda device 0 'Tesla K80'
gpuInit: Found compatible cuda device 1 'Tesla K80'
gpuInit: Found compatible cuda device 2 'Tesla K80'
gpuInit: Found compatible cuda device 3 'Tesla K80'
gpuInit: Found compatible cuda device 4 'Tesla K80'
gpuInit: Found compatible cuda device 5 'Tesla K80'
gpuInit: Found compatible cuda device 6 'Tesla K80'
gpuInit: Selected device 0
Resource initialization completed at t[s]:      3.37
Run totals: 7 processes, 24 threads, 7 GPUs


Input parsed successfully to the following command list (including defaults):

basis kpoint-dependent
cache-projectors no
coords-type Lattice
core-overlap-check none
coulomb-interaction Slab 001
coulomb-truncation-embed 0.5 0.5 0.5
davidson-band-ratio 1.1
dump End State
dump-name NbTe2.$VAR
elec-cutoff 20
elec-eigen-algo Davidson
elec-ex-corr gga-PBE
elec-initial-magnetization 20.000000 no
elec-smearing Gauss 0.0073499
electronic-minimize  \
	dirUpdateScheme      FletcherReeves \
	linminMethod         DirUpdateRecommended \
	nIterations          200 \
	history              15 \
	knormThreshold       0 \
	energyDiffThreshold  1e-08 \
	nEnergyDiff          2 \
	alphaTstart          1 \
	alphaTmin            1e-10 \
	updateTestStepSize   yes \
	alphaTreduceFactor   0.1 \
	alphaTincreaseFactor 3 \
	nAlphaAdjustMax      3 \
	wolfeEnergy          0.0001 \
	wolfeGradient        0.9 \
	fdTest               no
exchange-regularization WignerSeitzTruncated
fluid LinearPCM 298.000000 1.013250
fluid-anion F- 1 MeanFieldLJ \
	epsBulk 1 \
	pMol 0 \
	epsInf 1 \
	Pvap 0 \
	sigmaBulk 0 \
	Rvdw 2.24877 \
	Res 0 \
	tauNuc 343133
fluid-cation Na+ 1 MeanFieldLJ \
	epsBulk 1 \
	pMol 0 \
	epsInf 1 \
	Pvap 0 \
	sigmaBulk 0 \
	Rvdw 2.19208 \
	Res 0 \
	tauNuc 343133
fluid-ex-corr lda-TF lda-PZ
fluid-gummel-loop 10 1.000000e-05
fluid-minimize  \
	dirUpdateScheme      PolakRibiere \
	linminMethod         DirUpdateRecommended \
	nIterations          400 \
	history              15 \
	knormThreshold       1e-11 \
	energyDiffThreshold  0 \
	nEnergyDiff          2 \
	alphaTstart          1 \
	alphaTmin            1e-10 \
	updateTestStepSize   yes \
	alphaTreduceFactor   0.1 \
	alphaTincreaseFactor 3 \
	nAlphaAdjustMax      6 \
	wolfeEnergy          0.0001 \
	wolfeGradient        0.9 \
	fdTest               no
fluid-solvent H2O 55.338 ScalarEOS \
	epsBulk 78.4 \
	pMol 0.92466 \
	epsInf 1.77 \
	Pvap 1.06736e-10 \
	sigmaBulk 4.62e-05 \
	Rvdw 2.61727 \
	Res 1.42 \
	tauNuc 343133 \
	poleEl 15 7 1
forces-output-coords Positions
initial-state NbTe2.$VAR
ion V   0.083332210555556   0.166667776027779   0.500000008835160 1
ion V   0.333332210555556   0.166667776027779   0.500000008835160 1
ion V   0.583332210555556   0.166667776027779   0.500000008835160 1
ion V   0.833332210555556   0.166667776027779   0.500000008835160 1
ion V   0.083332210555556   0.416667776027779   0.500000008835160 1
ion V   0.333332210555556   0.416667776027779   0.500000008835160 1
ion V   0.583332210555556   0.416667776027779   0.500000008835160 1
ion V   0.833332210555556   0.416667776027779   0.500000008835160 1
ion V   0.083332210555556   0.666667776027778   0.500000008835160 1
ion V   0.333332210555556   0.666667776027778   0.500000008835160 1
ion V   0.583332210555556   0.666667776027778   0.500000008835160 1
ion V   0.833332210555556   0.666667776027778   0.500000008835160 1
ion V   0.083332210555556   0.916667776027778   0.500000008835160 1
ion V   0.333332210555556   0.916667776027778   0.500000008835160 1
ion V   0.583332210555556   0.916667776027778   0.500000008835160 1
ion V   0.833332210555556   0.916667776027778   0.500000008835160 1
ion S  -0.000001122777777   0.000001109361112   0.417322835368676 1
ion S  -0.000001122777777   0.000001109361112   0.582677182301644 1
ion S   0.249998877222223   0.000001109361112   0.417322835368676 1
ion S   0.249998877222223   0.000001109361112   0.582677182301644 1
ion S   0.499998877222223   0.000001109361112   0.417322835368676 1
ion S   0.499998877222223   0.000001109361112   0.582677182301644 1
ion S   0.749998877222223   0.000001109361112   0.417322835368676 1
ion S   0.749998877222223   0.000001109361112   0.582677182301644 1
ion S   0.999998877222223   0.250001109361112   0.417322835368676 1
ion S   0.999998877222223   0.250001109361112   0.582677182301644 1
ion S   0.249998877222223   0.250001109361112   0.417322835368676 1
ion S   0.249998877222223   0.250001109361112   0.582677182301644 1
ion S   0.499998877222223   0.250001109361112   0.417322835368676 1
ion S   0.499998877222223   0.250001109361112   0.582677182301644 1
ion S   0.749998877222223   0.250001109361112   0.417322835368676 1
ion S   0.749998877222223   0.250001109361112   0.582677182301644 1
ion S   0.999998877222223   0.500001109361112   0.417322835368676 1
ion S   0.999998877222223   0.500001109361112   0.582677182301644 1
ion S   0.249998877222223   0.500001109361112   0.417322835368676 1
ion S   0.249998877222223   0.500001109361112   0.582677182301644 1
ion S   0.499998877222223   0.500001109361112   0.417322835368676 1
ion S   0.499998877222223   0.500001109361112   0.582677182301644 1
ion S   0.749998877222223   0.500001109361112   0.417322835368676 1
ion S   0.749998877222223   0.500001109361112   0.582677182301644 1
ion S   0.999998877222223   0.750001109361112   0.417322835368676 1
ion S   0.999998877222223   0.750001109361112   0.582677182301644 1
ion S   0.249998877222223   0.750001109361112   0.417322835368676 1
ion S   0.249998877222223   0.750001109361112   0.582677182301644 1
ion S   0.499998877222223   0.750001109361112   0.417322835368676 1
ion S   0.499998877222223   0.750001109361112   0.582677182301644 1
ion S   0.749998877222223   0.750001109361112   0.417322835368676 1
ion S   0.749998877222223   0.750001109361112   0.582677182301644 1
ion-species GBRV/$ID_pbe.uspp
ion-width Ecut
ionic-minimize  \
	dirUpdateScheme      L-BFGS \
	linminMethod         DirUpdateRecommended \
	nIterations          500 \
	history              15 \
	knormThreshold       0.0001 \
	energyDiffThreshold  1e-06 \
	nEnergyDiff          2 \
	alphaTstart          1 \
	alphaTmin            1e-10 \
	updateTestStepSize   yes \
	alphaTreduceFactor   0.1 \
	alphaTincreaseFactor 3 \
	nAlphaAdjustMax      3 \
	wolfeEnergy          0.0001 \
	wolfeGradient        0.9 \
	fdTest               no
kpoint   0.000000000000   0.000000000000   0.000000000000  1.00000000000000
kpoint-folding 3 3 1 
latt-move-scale 1 1 1
latt-scale 1.88973 1.88973 1.88973 
lattice Triclinic 12.6408 12.6408 17.9799 90 90 120
lattice-minimize  \
	dirUpdateScheme      L-BFGS \
	linminMethod         DirUpdateRecommended \
	nIterations          0 \
	history              15 \
	knormThreshold       0 \
	energyDiffThreshold  1e-06 \
	nEnergyDiff          2 \
	alphaTstart          1 \
	alphaTmin            1e-10 \
	updateTestStepSize   yes \
	alphaTreduceFactor   0.1 \
	alphaTincreaseFactor 3 \
	nAlphaAdjustMax      3 \
	wolfeEnergy          0.0001 \
	wolfeGradient        0.9 \
	fdTest               no
lcao-params -1 1e-06 0.0073499
pcm-variant CANDLE
spintype z-spin
subspace-rotation-factor 1 yes
symmetries automatic
symmetry-threshold 0.0001
target-mu -0.171252 no




---------- Setting up symmetries ----------

Found 24 point-group symmetries of the bravais lattice
Found 192 space-group symmetries with basis
Applied RMS atom displacement 7.95016e-15 bohrs to make symmetries exact.

---------- Initializing the Grid ----------
R = 
[    23.8876   -11.9438          0  ]
[          0    20.6873          0  ]
[          0          0     33.977  ]
unit cell volume = 16790.5
G =
[   0.263031   0.151861         -0  ]
[          0   0.303722          0  ]
[          0         -0   0.184924  ]
Minimum fftbox size, Smin = [  100  100  140  ]
Chosen fftbox size, S = [  100  100  140  ]

---------- Exchange Correlation functional ----------
Initalized PBE GGA exchange.
Initalized PBE GGA correlation.

---------- Setting up pseudopotentials ----------
Width of ionic core gaussian charges (only for fluid interactions / plotting) set to 0.397384

Reading pseudopotential file '/home/guoxy/vasp/jdftx-1.5.0/build/pseudopotentials/GBRV/v_pbe.uspp':
  Title: V.  Created by USPP 7.3.6 on 31-3-15
  Reference state energy: -72.228583.  13 valence electrons in orbitals:
    |300>  occupation: 2  eigenvalue: -2.581040
    |310>  occupation: 6  eigenvalue: -1.618497
    |400>  occupation: 2  eigenvalue: -0.172800
    |320>  occupation: 3  eigenvalue: -0.189802
  lMax: 2  lLocal: 3  QijEcut: 6
  6 projectors sampled on a log grid with 593 points:
    l: 0  eig: -2.581041  rCut: 1.5
    l: 0  eig: -0.172801  rCut: 1.5
    l: 1  eig: -1.618497  rCut: 1.6
    l: 1  eig: 0.150000  rCut: 1.6
    l: 2  eig: -0.189802  rCut: 1.7
    l: 2  eig: 0.150000  rCut: 1.7
  Partial core density with radius 0.8
  Transforming core density to a uniform radial grid of dG=0.02 with 1471 points.
  Transforming local potential to a uniform radial grid of dG=0.02 with 1471 points.
  Transforming nonlocal projectors to a uniform radial grid of dG=0.02 with 432 points.
  Transforming density augmentations to a uniform radial grid of dG=0.02 with 1471 points.
  Transforming atomic orbitals to a uniform radial grid of dG=0.02 with 432 points.
  Core radius for overlap checks: 1.80 bohrs.

Reading pseudopotential file '/home/guoxy/vasp/jdftx-1.5.0/build/pseudopotentials/GBRV/s_pbe.uspp':
  Title: S.  Created by USPP 7.3.6 on 1-4-15
  Reference state energy: -11.898476.  6 valence electrons in orbitals:
    |300>  occupation: 2  eigenvalue: -0.634167
    |310>  occupation: 4  eigenvalue: -0.257568
  lMax: 2  lLocal: 3  QijEcut: 6
  6 projectors sampled on a log grid with 635 points:
    l: 0  eig: -0.634161  rCut: 1.5
    l: 0  eig: 1.500000  rCut: 1.5
    l: 1  eig: -0.257567  rCut: 1.5
    l: 1  eig: 1.500000  rCut: 1.5
    l: 2  eig: -1.000000  rCut: 1.5
    l: 2  eig: 1.500000  rCut: 1.5
  Partial core density with radius 1.15
  Transforming core density to a uniform radial grid of dG=0.02 with 1471 points.
  Transforming local potential to a uniform radial grid of dG=0.02 with 1471 points.
  Transforming nonlocal projectors to a uniform radial grid of dG=0.02 with 432 points.
  Transforming density augmentations to a uniform radial grid of dG=0.02 with 1471 points.
  Transforming atomic orbitals to a uniform radial grid of dG=0.02 with 432 points.
  Core radius for overlap checks: 1.50 bohrs.

Initialized 2 species with 48 total atoms.

Folded 1 k-points by 3x3x1 to 9 k-points.

---------- Setting up k-points, bands, fillings ----------
Adding inversion symmetry to k-mesh for non-inversion-symmetric unit cell.
Reduced to 3 k-points under symmetry. 
Computing the number of bands and number of electrons
Calculating initial fillings.
nElectrons: 400.000000   nBands: 288   nStates: 6

----- Setting up reduced wavefunction bases (one per k-point) -----
average nbasis = 71715.667 , ideal nbasis = 71730.201

---------- Setting up coulomb interaction ----------
Fluid mode embedding: using embedded box, but periodic Coulomb kernel.
(Fluid response is responsible for (approximate) separation between periodic images.)
Setting up double-sized grid for truncated Coulomb potentials:
R = 
[    23.8876   -11.9438          0  ]
[          0    20.6873          0  ]
[          0          0    67.9541  ]
unit cell volume = 33581
G =
[   0.263031   0.151861         -0  ]
[          0   0.303722          0  ]
[          0         -0  0.0924622  ]
Chosen fftbox size, S = [  100  100  280  ]
Integer grid location selected as the embedding center:
   Grid: [  50  50  70  ]
   Lattice: [  0.5  0.5  0.5  ]
   Cartesian: [  5.97191  10.3437  16.9885  ]
Constructing Wigner-Seitz cell: 8 faces (6 quadrilaterals, 2 hexagons)
Range-separation parameter for embedded mesh potentials due to point charges: 0.621497 bohrs.

Initializing van der Waals corrections
	NOTE: vdW corrections apply only for interactions with fluid.
	 V:  C6:  187.33 Eh-a0^6  R0: 2.952 a0
	 S:  C6:   96.61 Eh-a0^6  R0: 3.180 a0

---------- Setting up ewald sum ----------
Optimum gaussian width for ewald sums = 6.751509 bohr.
Real space sum over 605 unit cells with max indices [  5  5  2  ]
Reciprocal space sum over 7875 terms with max indices [  7  7  17  ]

---------- Allocating electronic variables ----------
Initializing wave functions:  linear combination of atomic orbitals
V pseudo-atom occupations:   s ( 2 0 )  p ( 6 )  d ( 5 )
S pseudo-atom occupations:   s ( 2 )  p ( 4 )
	FillingsUpdate:  mu: -0.171251800  nElectrons: 400.000000  magneticMoment: [ Abs: 2.10607  Tot: +2.10602 ]
LCAOMinimize: Iter:   0  G: -1158.5010100585600412  |grad|_K:  1.764e-02  alpha:  1.000e+00
LCAOMinimize: 	Predicted alpha/alphaT>3.000000, increasing alphaT to 3.000000e+00.
	FillingsUpdate:  mu: -0.171251800  nElectrons: 400.000000  magneticMoment: [ Abs: 2.51683  Tot: -2.39143 ]
LCAOMinimize: Iter:   1  G: -1290.3524505467721610  |grad|_K:  5.999e-03  alpha:  1.245e+00  linmin:  1.685e-02  cgtest: -4.035e+00  t[s]:    136.79
LCAOMinimize: 	Bad step direction: g.d > 0.
LCAOMinimize: 	Undoing step.
LCAOMinimize: 	Step failed: resetting search direction.
	FillingsUpdate:  mu: -0.171251800  nElectrons: 400.000000  magneticMoment: [ Abs: 2.51683  Tot: -2.39143 ]
LCAOMinimize: Iter:   2  G: -1290.3524505467721610  |grad|_K:  5.999e-03  alpha:  0.000e+00
	FillingsUpdate:  mu: -0.171251800  nElectrons: 400.000000  magneticMoment: [ Abs: 2.74718  Tot: -2.62202 ]
LCAOMinimize: Iter:   3  G: -1291.5249797852138727  |grad|_K:  4.949e-03  alpha:  7.783e-02  linmin: -1.821e-02  cgtest:  1.115e+00  t[s]:    201.22
LCAOMinimize: Encountered beta<0, resetting CG.
LCAOMinimize: 	Wrong curvature in test step, increasing alphaT to 2.334859e-01.
	FillingsUpdate:  mu: -0.171251800  nElectrons: 400.000000  magneticMoment: [ Abs: 2.88229  Tot: -2.75736 ]
LCAOMinimize: Iter:   4  G: -1292.5155910793048406  |grad|_K:  5.180e-03  alpha: -1.046e+00  linmin: -2.160e-02  cgtest:  8.791e-01  t[s]:    238.95
	FillingsUpdate:  mu: -0.171251800  nElectrons: 400.000000  magneticMoment: [ Abs: 2.85636  Tot: -2.73156 ]
LCAOMinimize: Iter:   5  G: -1293.4358431630337236  |grad|_K:  6.334e-03  alpha:  4.630e-02  linmin: -2.429e-02  cgtest:  7.716e-01  t[s]:    276.83
LCAOMinimize: 	Wrong curvature in test step, increasing alphaT to 1.389087e-01.
	FillingsUpdate:  mu: -0.171251800  nElectrons: 400.000000  magneticMoment: [ Abs: 2.45939  Tot: -2.33459 ]
LCAOMinimize: Iter:   6  G: -1296.6362570437167960  |grad|_K:  1.272e-02  alpha: -2.255e-02  linmin: -2.977e-02  cgtest:  4.569e-01  t[s]:    314.34
LCAOMinimize: 	Step increased G by 1.701034e+02, reducing alpha to 3.801546e-02.
	FillingsUpdate:  mu: -0.171251800  nElectrons: 400.000000  magneticMoment: [ Abs: 0.33655  Tot: -0.20205 ]
LCAOMinimize: Iter:   7  G: -1342.1615978956174331  |grad|_K:  8.536e-03  alpha:  3.802e-02  linmin: -7.972e-02  cgtest:  9.984e-01  t[s]:    378.57
LCAOMinimize: Encountered beta<0, resetting CG.
LCAOMinimize: 	Predicted alpha/alphaT>3.000000, increasing alphaT to 1.140464e-01.
LCAOMinimize: 	Predicted alpha/alphaT>3.000000, increasing alphaT to 3.421391e-01.
LCAOMinimize: 	Wrong curvature in test step, increasing alphaT to 1.026417e+00.
	FillingsUpdate:  mu: -0.171251800  nElectrons: 400.000000  magneticMoment: [ Abs: 1.05005  Tot: -0.94092 ]
LCAOMinimize: Iter:   8  G: -1364.4966807763689758  |grad|_K:  1.972e-02  alpha: -2.171e-01  linmin: -1.304e-01  cgtest:  2.507e-01  t[s]:    439.27
LCAOMinimize: 	Step increased G by 2.367928e+02, reducing alpha to 4.415171e-02.
LCAOMinimize: 	Step increased G by 8.410907e+01, reducing alpha to 4.415171e-03.
	FillingsUpdate:  mu: -0.171251800  nElectrons: 400.000000  magneticMoment: [ Abs: 1.34436  Tot: -1.34368 ]
LCAOMinimize: Iter:   9  G: -1370.9664691798752756  |grad|_K:  1.599e-02  alpha:  4.415e-03  linmin: -1.588e-01  cgtest:  1.116e+00  t[s]:    530.23
LCAOMinimize: Encountered beta<0, resetting CG.
LCAOMinimize: 	Predicted alpha/alphaT>3.000000, increasing alphaT to 1.324551e-02.
LCAOMinimize: 	Predicted alpha/alphaT>3.000000, increasing alphaT to 3.973654e-02.
LCAOMinimize: 	Wrong curvature in test step, increasing alphaT to 1.192096e-01.
	FillingsUpdate:  mu: -0.171251800  nElectrons: 400.000000  magneticMoment: [ Abs: 1.79042  Tot: -1.79014 ]
LCAOMinimize: Iter:  10  G: -1376.0597441406284815  |grad|_K:  1.529e-02  alpha: -2.873e+01  linmin: -1.431e-01  cgtest:  9.522e-01  t[s]:    591.28
	FillingsUpdate:  mu: -0.171251800  nElectrons: 400.000000  magneticMoment: [ Abs: 2.38803  Tot: -2.21071 ]
LCAOMinimize: Iter:  11  G: -1396.8119385795407652  |grad|_K:  1.298e-02  alpha:  1.770e-01  linmin: -3.074e-01  cgtest:  6.048e-01  t[s]:    629.05
	FillingsUpdate:  mu: -0.171251800  nElectrons: 400.000000  magneticMoment: [ Abs: 2.50881  Tot: -2.15651 ]
LCAOMinimize: Iter:  12  G: -1403.1036329823118649  |grad|_K:  9.951e-03  alpha:  5.200e-02  linmin: -3.403e-01  cgtest:  7.888e-01  t[s]:    666.85
LCAOMinimize: Encountered beta<0, resetting CG.
LCAOMinimize: 	Predicted alpha/alphaT>3.000000, increasing alphaT to 1.560072e-01.
	FillingsUpdate:  mu: -0.171251800  nElectrons: 400.000000  magneticMoment: [ Abs: 2.57315  Tot: -1.90860 ]
LCAOMinimize: Iter:  13  G: -1406.9384435277761440  |grad|_K:  1.658e-03  alpha:  1.343e-01  linmin:  3.883e-01  cgtest: -7.060e-01  t[s]:    716.58
LCAOMinimize: 	Bad step direction: g.d > 0.
LCAOMinimize: 	Undoing step.
LCAOMinimize: 	Step failed: resetting search direction.
	FillingsUpdate:  mu: -0.171251800  nElectrons: 400.000000  magneticMoment: [ Abs: 2.57315  Tot: -1.90860 ]
LCAOMinimize: Iter:  14  G: -1406.9384435277761440  |grad|_K:  1.658e-03  alpha:  0.000e+00
	FillingsUpdate:  mu: -0.171251800  nElectrons: 400.000000  magneticMoment: [ Abs: 2.57334  Tot: -1.96259 ]
LCAOMinimize: Iter:  15  G: -1407.0076550792232410  |grad|_K:  4.241e-04  alpha:  1.019e-01  linmin:  4.419e-02  cgtest: -1.086e-01  t[s]:    780.74
LCAOMinimize: 	Predicted alpha/alphaT>3.000000, increasing alphaT to 3.056327e-01.
	FillingsUpdate:  mu: -0.171251800  nElectrons: 400.000000  magneticMoment: [ Abs: 2.55246  Tot: -2.01456 ]
LCAOMinimize: Iter:  16  G: -1407.0377709408385272  |grad|_K:  1.761e-04  alpha:  7.628e-01  linmin:  8.132e-02  cgtest: -4.743e-01  t[s]:    830.25
	FillingsUpdate:  mu: -0.171251800  nElectrons: 400.000000  magneticMoment: [ Abs: 2.55666  Tot: -2.02938 ]
LCAOMinimize: Iter:  17  G: -1407.0386538996219770  |grad|_K:  5.370e-05  alpha:  9.891e-02  linmin:  1.137e-01  cgtest:  4.707e-01  t[s]:    868.41
LCAOMinimize: Encountered beta<0, resetting CG.
LCAOMinimize: 	Wrong curvature in test step, increasing alphaT to 2.967378e-01.
	FillingsUpdate:  mu: -0.171251800  nElectrons: 400.000000  magneticMoment: [ Abs: 2.56167  Tot: -2.03728 ]
LCAOMinimize: Iter:  18  G: -1407.0388839585937149  |grad|_K:  4.493e-05  alpha: -8.113e-02  linmin: -3.131e-01  cgtest:  9.563e-01  t[s]:    906.32
LCAOMinimize: Encountered beta<0, resetting CG.
LCAOMinimize: 	Step increased G by 1.915880e-05, reducing alpha to 2.091765e-01.
	FillingsUpdate:  mu: -0.171251800  nElectrons: 400.000000  magneticMoment: [ Abs: 2.57232  Tot: -2.05279 ]
LCAOMinimize: Iter:  19  G: -1407.0391635548567137  |grad|_K:  3.260e-05  alpha:  2.092e-01  linmin: -3.034e-01  cgtest:  9.969e-01  t[s]:    970.41
LCAOMinimize: Encountered beta<0, resetting CG.
LCAOMinimize: 	Wrong curvature in test step, increasing alphaT to 6.275296e-01.
	FillingsUpdate:  mu: -0.171251800  nElectrons: 400.000000  magneticMoment: [ Abs: 2.58361  Tot: -2.06804 ]
LCAOMinimize: Iter:  20  G: -1407.0393471388406397  |grad|_K:  2.381e-05  alpha: -1.614e-01  linmin: -2.950e-01  cgtest:  9.898e-01  t[s]:   1007.91
LCAOMinimize: Encountered beta<0, resetting CG.
LCAOMinimize: 	Wrong curvature in test step, increasing alphaT to 3.000000e+00.
	FillingsUpdate:  mu: -0.171251800  nElectrons: 400.000000  magneticMoment: [ Abs: 2.63975  Tot: -2.13798 ]
LCAOMinimize: Iter:  21  G: -1407.0396486345844096  |grad|_K:  2.399e-05  alpha: -8.137e+00  linmin:  9.034e-02  cgtest: -3.591e-01  t[s]:   1045.36
	FillingsUpdate:  mu: -0.171251800  nElectrons: 400.000000  magneticMoment: [ Abs: 2.67314  Tot: -2.17583 ]
LCAOMinimize: Iter:  22  G: -1407.0398232872591961  |grad|_K:  2.879e-05  alpha:  2.273e-01  linmin:  2.954e-01  cgtest: -6.261e-01  t[s]:   1083.60
LCAOMinimize: 	Bad step direction: g.d > 0.
LCAOMinimize: 	Undoing step.
LCAOMinimize: 	Step failed: resetting search direction.
	FillingsUpdate:  mu: -0.171251800  nElectrons: 400.000000  magneticMoment: [ Abs: 2.67314  Tot: -2.17583 ]
LCAOMinimize: Iter:  23  G: -1407.0398232872591961  |grad|_K:  2.879e-05  alpha:  0.000e+00
LCAOMinimize: 	Step increased G by 1.508186e-05, reducing alpha to 4.328953e-03.
LCAOMinimize: 	Step increased G by 1.210520e-06, reducing alpha to 4.328953e-04.
LCAOMinimize: 	Step increased G by 1.180292e-07, reducing alpha to 4.328953e-05.
LCAOMinimize: 	Step failed to reduce G after 3 attempts. Quitting step.
LCAOMinimize: 	Undoing step.
LCAOMinimize: 	Step failed along negative gradient direction.
LCAOMinimize: Probably at roundoff error limit. (Stopping)
----- createFluidSolver() ----- (Fluid-side solver setup)
   Initializing fluid molecule 'H2O'
     Initializing site 'O'
       Electron density: proportional to exp(-r/0.36935)*erfc((r-0.51523)/0.36823) with norm 6.826
       Charge density: gaussian nuclear width 0.478731 with net site charge 0.826
       Polarizability: cuspless exponential with width 0.32 and norm 3.73
       Hard sphere radius: 2.57003 bohrs
       Positions in reference frame:
         [ +0.000000 +0.000000 +0.000000 ]
     Initializing site 'H'
       Electron density: proportional to exp(-r/0.34641)*erfc((r-0)/0.390882) with norm 0.587
       Charge density: gaussian nuclear width 0.377945 with net site charge -0.413
       Polarizability: cuspless exponential with width 0.39 and norm 3.3
       Positions in reference frame:
         [ +0.000000 -1.441945 +1.122523 ]
         [ +0.000000 +1.441945 +1.122523 ]
     Net charge: 0   dipole magnitude: 0.927204
     Initializing spherical shell mfKernel with radius 2.61727 Bohr
     deltaS corrections:
       site 'O': -7.54299
       site 'H': -6.83917
   Initializing fluid molecule 'Na+'
     Initializing site 'Na'
       Electron density: proportional to exp(-r/0.19682)*erfc((r-0.71491)/0.41314) with norm 8.1383
       Charge density: gaussian nuclear width 0.365347 with net site charge -1
       Hard sphere radius: 1.86327 bohrs
       Positions in reference frame:
         [ +0.000000 +0.000000 +0.000000 ]
     Net charge: -1   dipole magnitude: 0
     Initializing gaussian mfKernel with width: 1.55004 Bohr
     deltaS corrections:
       site 'Na': -22.3555
   Initializing fluid molecule 'F-'
     Initializing site 'F'
       Electron density: proportional to exp(-r/0.38886)*erfc((r-0)/0.438782) with norm 8
       Charge density: gaussian nuclear width 0.374796 with net site charge 1
       Hard sphere radius: 2.39995 bohrs
       Positions in reference frame:
         [ +0.000000 +0.000000 +0.000000 ]
     Net charge: 1   dipole magnitude: 0
     Initializing gaussian mfKernel with width: 1.59012 Bohr
     deltaS corrections:
       site 'F': -9.04335

Correction to mu due to finite nuclear width = -0.0118186
   Cavity determined by nc: 0.00142 and sigma: 0.707107
   Nonlocal vdW cavity from gaussian model electron density with norm = 8 and sigma = 0.993594 bohr
   Charge asymmetry in cavity with sensitivity pCavity = 36.5 e-bohr/Eh
   Electrostatic cavity expanded by eta = 1.46 bohrs
   Weighted density cavitation model constrained by Nbulk: 0.0049383 bohr^-3, Pvap: 3.14029 kPa, Rvdw: 2.61727 bohr and sigmaBulk: 4.62e-05 Eh/bohr^2 at T: 298 K.
   Weighted density dispersion model using vdW pair potentials with single solvent site with sqrtC6eff: 0.77 SI.


---- Citations for features of the code used in this run ----

   Software package:
      R. Sundararaman, K. Letchworth-Weaver, K.A. Schwarz, D. Gunceler, Y. Ozhabes and T.A. Arias, 'JDFTx: software for joint density-functional theory', SoftwareX 6, 278 (2017)

   gga-PBE exchange-correlation functional:
      J.P. Perdew, K. Burke and M. Ernzerhof, Phys. Rev. Lett. 77, 3865 (1996)

   Pseudopotentials:
      KF Garrity, JW Bennett, KM Rabe and D Vanderbilt, Comput. Mater. Sci. 81, 446 (2014)

   Truncated Coulomb potentials:
      R. Sundararaman and T.A. Arias, Phys. Rev. B 87, 165122 (2013)

   Van der Waals correction pair-potentials:
      S. Grimme, J. Comput. Chem. 27, 1787 (2006)

   Charge-asymmetric nonlocally-determined local-electric (CANDLE) solvation model:
      R. Sundararaman and W.A. Goddard III, J. Chem. Phys. 142, 064107 (2015)

   Total energy minimization with Auxiliary Hamiltonian:
      C. Freysoldt, S. Boeck, and J. Neugebauer, Phys. Rev. B 79, 241103(R) (2009)

   Grand-canonical (fixed-potential) DFT:
      R. Sundararaman, W. A. Goddard III and T. A. Arias, J. Chem. Phys. 146, 114104 (2017)

This list may not be complete. Please suggest additional citations or
report any other bugs at https://github.com/shankar1729/jdftx/issues

Initialization completed successfully at t[s]:   1232.06

Fluid solver invoked on fresh (partially random / LCAO) wavefunctions
Running a vacuum solve first:

-------- Initial electronic minimization -----------
	FillingsUpdate:  mu: -0.188160471  nElectrons: 400.000000  magneticMoment: [ Abs: 2.67316  Tot: -2.17585 ]
ElecMinimize: Iter:   0  G: -1407.143669047626872  |grad|_K:  1.458e-04  alpha:  1.000e+00
	FillingsUpdate:  mu: -0.123779605  nElectrons: 400.000000  magneticMoment: [ Abs: 2.70401  Tot: -2.21005 ]
	SubspaceRotationAdjust: set factor to 0.997
ElecMinimize: Iter:   1  G: -1408.759042356278542  |grad|_K:  9.726e-05  alpha:  6.141e-01  linmin:  3.142e-07  t[s]:   1310.28
	FillingsUpdate:  mu: -0.069564051  nElectrons: 400.000000  magneticMoment: [ Abs: 2.94988  Tot: -2.44185 ]
	SubspaceRotationAdjust: set factor to 0.771
ElecMinimize: Iter:   2  G: -1409.413462302823518  |grad|_K:  7.451e-05  alpha:  5.579e-01  linmin:  6.596e-07  t[s]:   1357.67
	FillingsUpdate:  mu: -0.147625116  nElectrons: 400.000000  magneticMoment: [ Abs: 3.02022  Tot: -2.53933 ]
	SubspaceRotationAdjust: set factor to 0.398
ElecMinimize: Iter:   3  G: -1409.523309766929742  |grad|_K:  4.531e-05  alpha:  1.926e-01  linmin:  3.591e-05  t[s]:   1405.59
ElecMinimize: 	Predicted alpha/alphaT>3.000000, increasing alphaT to 5.778261e-01.
	FillingsUpdate:  mu: -0.120980837  nElectrons: 400.000000  magneticMoment: [ Abs: 3.16458  Tot: -2.64221 ]
	SubspaceRotationAdjust: set factor to 0.278
ElecMinimize: Iter:   4  G: -1409.654239286169741  |grad|_K:  2.088e-05  alpha:  5.765e-01  linmin:  5.050e-05  t[s]:   1466.68
	FillingsUpdate:  mu: -0.135605348  nElectrons: 400.000000  magneticMoment: [ Abs: 3.18474  Tot: -2.65063 ]
	SubspaceRotationAdjust: set factor to 0.268
ElecMinimize: Iter:   5  G: -1409.682656799688175  |grad|_K:  1.566e-05  alpha:  5.337e-01  linmin:  4.041e-07  t[s]:   1514.39
	FillingsUpdate:  mu: -0.128981242  nElectrons: 400.000000  magneticMoment: [ Abs: 3.20111  Tot: -2.64933 ]
	SubspaceRotationAdjust: set factor to 0.298
ElecMinimize: Iter:   6  G: -1409.699017878692757  |grad|_K:  8.477e-06  alpha:  5.382e-01  linmin:  3.415e-07  t[s]:   1561.79
	FillingsUpdate:  mu: -0.129950779  nElectrons: 400.000000  magneticMoment: [ Abs: 3.19489  Tot: -2.63492 ]
	SubspaceRotationAdjust: set factor to 0.363
ElecMinimize: Iter:   7  G: -1409.705250470979536  |grad|_K:  6.065e-06  alpha:  6.999e-01  linmin:  2.761e-07  t[s]:   1609.84
	FillingsUpdate:  mu: -0.130972500  nElectrons: 400.000000  magneticMoment: [ Abs: 3.17768  Tot: -2.61441 ]
	SubspaceRotationAdjust: set factor to 0.445
ElecMinimize: Iter:   8  G: -1409.708074067093094  |grad|_K:  4.361e-06  alpha:  6.191e-01  linmin:  1.305e-07  t[s]:   1657.59
	FillingsUpdate:  mu: -0.129287888  nElectrons: 400.000000  magneticMoment: [ Abs: 3.15556  Tot: -2.59059 ]
	SubspaceRotationAdjust: set factor to 0.523
ElecMinimize: Iter:   9  G: -1409.709370696343285  |grad|_K:  3.102e-06  alpha:  5.494e-01  linmin:  2.447e-07  t[s]:   1705.31
	FillingsUpdate:  mu: -0.130927928  nElectrons: 400.000000  magneticMoment: [ Abs: 3.12704  Tot: -2.56266 ]
	SubspaceRotationAdjust: set factor to 0.515
ElecMinimize: Iter:  10  G: -1409.709978473460978  |grad|_K:  2.011e-06  alpha:  5.098e-01  linmin:  2.116e-07  t[s]:   1752.64
	FillingsUpdate:  mu: -0.129075282  nElectrons: 400.000000  magneticMoment: [ Abs: 3.09961  Tot: -2.53571 ]
	SubspaceRotationAdjust: set factor to 0.406
ElecMinimize: Iter:  11  G: -1409.710217011627492  |grad|_K:  1.451e-06  alpha:  4.757e-01  linmin:  3.248e-07  t[s]:   1800.37
	FillingsUpdate:  mu: -0.130267414  nElectrons: 400.000000  magneticMoment: [ Abs: 3.07240  Tot: -2.51082 ]
	SubspaceRotationAdjust: set factor to 0.35
ElecMinimize: Iter:  12  G: -1409.710318377807425  |grad|_K:  8.708e-07  alpha:  3.882e-01  linmin:  2.114e-07  t[s]:   1848.46
	FillingsUpdate:  mu: -0.130171300  nElectrons: 400.000000  magneticMoment: [ Abs: 3.04064  Tot: -2.48274 ]
	SubspaceRotationAdjust: set factor to 0.401
ElecMinimize: Iter:  13  G: -1409.710372705769259  |grad|_K:  5.515e-07  alpha:  5.777e-01  linmin:  1.452e-06  t[s]:   1896.18
	FillingsUpdate:  mu: -0.130059227  nElectrons: 400.000000  magneticMoment: [ Abs: 3.00820  Tot: -2.45519 ]
	SubspaceRotationAdjust: set factor to 0.461
ElecMinimize: Iter:  14  G: -1409.710397634382389  |grad|_K:  4.184e-07  alpha:  6.606e-01  linmin:  1.106e-07  t[s]:   1943.71
	FillingsUpdate:  mu: -0.130207423  nElectrons: 400.000000  magneticMoment: [ Abs: 2.97477  Tot: -2.42730 ]
	SubspaceRotationAdjust: set factor to 0.555
ElecMinimize: Iter:  15  G: -1409.710410042433750  |grad|_K:  3.328e-07  alpha:  5.711e-01  linmin:  8.385e-08  t[s]:   1991.60
	FillingsUpdate:  mu: -0.129999711  nElectrons: 400.000000  magneticMoment: [ Abs: 2.93620  Tot: -2.39523 ]
	SubspaceRotationAdjust: set factor to 0.642
ElecMinimize: Iter:  16  G: -1409.710417569474657  |grad|_K:  2.761e-07  alpha:  5.477e-01  linmin:  1.597e-07  t[s]:   2039.45
	FillingsUpdate:  mu: -0.130246392  nElectrons: 400.000000  magneticMoment: [ Abs: 2.88895  Tot: -2.35615 ]
	SubspaceRotationAdjust: set factor to 0.643
ElecMinimize: Iter:  17  G: -1409.710422615955167  |grad|_K:  2.583e-07  alpha:  5.337e-01  linmin:  1.173e-07  t[s]:   2087.08
	FillingsUpdate:  mu: -0.130031756  nElectrons: 400.000000  magneticMoment: [ Abs: 2.82921  Tot: -2.30675 ]
	SubspaceRotationAdjust: set factor to 0.663
ElecMinimize: Iter:  18  G: -1409.710426675101644  |grad|_K:  2.301e-07  alpha:  4.904e-01  linmin:  2.023e-07  t[s]:   2134.88
	FillingsUpdate:  mu: -0.130194151  nElectrons: 400.000000  magneticMoment: [ Abs: 2.72469  Tot: -2.22088 ]
	SubspaceRotationAdjust: set factor to 0.729
ElecMinimize: Iter:  19  G: -1409.710431549195164  |grad|_K:  2.721e-07  alpha:  7.428e-01  linmin:  2.787e-07  t[s]:   2182.11
	FillingsUpdate:  mu: -0.129948554  nElectrons: 400.000000  magneticMoment: [ Abs: 2.55433  Tot: -2.08128 ]
	SubspaceRotationAdjust: set factor to 0.783
ElecMinimize: Iter:  20  G: -1409.710438085417991  |grad|_K:  3.438e-07  alpha:  7.118e-01  linmin:  9.732e-07  t[s]:   2229.78
	FillingsUpdate:  mu: -0.130278113  nElectrons: 400.000000  magneticMoment: [ Abs: 2.30827  Tot: -1.87994 ]
	SubspaceRotationAdjust: set factor to 0.757
ElecMinimize: Iter:  21  G: -1409.710446549313929  |grad|_K:  4.028e-07  alpha:  5.783e-01  linmin:  4.087e-07  t[s]:   2277.78
	FillingsUpdate:  mu: -0.129917179  nElectrons: 400.000000  magneticMoment: [ Abs: 1.98117  Tot: -1.61196 ]
	SubspaceRotationAdjust: set factor to 0.704
ElecMinimize: Iter:  22  G: -1409.710457101800557  |grad|_K:  4.219e-07  alpha:  5.245e-01  linmin:  8.387e-07  t[s]:   2325.23
	FillingsUpdate:  mu: -0.130210246  nElectrons: 400.000000  magneticMoment: [ Abs: 1.58818  Tot: -1.28996 ]
	SubspaceRotationAdjust: set factor to 0.681
ElecMinimize: Iter:  23  G: -1409.710469123938992  |grad|_K:  4.060e-07  alpha:  5.480e-01  linmin:  1.003e-06  t[s]:   2373.29
	FillingsUpdate:  mu: -0.129961786  nElectrons: 400.000000  magneticMoment: [ Abs: 1.18500  Tot: -0.96011 ]
	SubspaceRotationAdjust: set factor to 0.669
ElecMinimize: Iter:  24  G: -1409.710481021447777  |grad|_K:  4.160e-07  alpha:  5.860e-01  linmin:  2.247e-06  t[s]:   2420.43
	FillingsUpdate:  mu: -0.130298887  nElectrons: 400.000000  magneticMoment: [ Abs: 0.82287  Tot: -0.66476 ]
	SubspaceRotationAdjust: set factor to 0.676
ElecMinimize: Iter:  25  G: -1409.710491423796611  |grad|_K:  3.667e-07  alpha:  4.890e-01  linmin: -5.740e-07  t[s]:   2468.30
	FillingsUpdate:  mu: -0.130058444  nElectrons: 400.000000  magneticMoment: [ Abs: 0.50893  Tot: -0.40979 ]
	SubspaceRotationAdjust: set factor to 0.719
ElecMinimize: Iter:  26  G: -1409.710500369984175  |grad|_K:  3.297e-07  alpha:  5.345e-01  linmin: -8.834e-08  t[s]:   2516.03
	FillingsUpdate:  mu: -0.130227000  nElectrons: 400.000000  magneticMoment: [ Abs: 0.28907  Tot: -0.23200 ]
	SubspaceRotationAdjust: set factor to 0.788
ElecMinimize: Iter:  27  G: -1409.710506522915466  |grad|_K:  2.589e-07  alpha:  4.560e-01  linmin: -2.967e-07  t[s]:   2563.44
	FillingsUpdate:  mu: -0.130049500  nElectrons: 400.000000  magneticMoment: [ Abs: 0.15165  Tot: -0.12140 ]
	SubspaceRotationAdjust: set factor to 0.798
ElecMinimize: Iter:  28  G: -1409.710510327825659  |grad|_K:  2.091e-07  alpha:  4.561e-01  linmin: -3.307e-07  t[s]:   2610.94
	FillingsUpdate:  mu: -0.130203871  nElectrons: 400.000000  magneticMoment: [ Abs: 0.07861  Tot: -0.06285 ]
	SubspaceRotationAdjust: set factor to 0.695
ElecMinimize: Iter:  29  G: -1409.710512326605340  |grad|_K:  1.666e-07  alpha:  3.677e-01  linmin: -1.003e-07  t[s]:   2658.27
	FillingsUpdate:  mu: -0.130084215  nElectrons: 400.000000  magneticMoment: [ Abs: 0.03138  Tot: -0.02511 ]
	SubspaceRotationAdjust: set factor to 0.617
ElecMinimize: Iter:  30  G: -1409.710513606095219  |grad|_K:  1.216e-07  alpha:  3.712e-01  linmin:  4.090e-07  t[s]:   2706.43
	FillingsUpdate:  mu: -0.130143517  nElectrons: 400.000000  magneticMoment: [ Abs: 0.00378  Tot: -0.00139 ]
	SubspaceRotationAdjust: set factor to 0.65
ElecMinimize: Iter:  31  G: -1409.710514404982632  |grad|_K:  9.194e-08  alpha:  4.362e-01  linmin:  2.084e-07  t[s]:   2753.98
	FillingsUpdate:  mu: -0.130108406  nElectrons: 400.000000  magneticMoment: [ Abs: 0.01881  Tot: +0.01483 ]
	SubspaceRotationAdjust: set factor to 0.788
ElecMinimize: Iter:  32  G: -1409.710514950498464  |grad|_K:  6.973e-08  alpha:  5.210e-01  linmin:  2.355e-07  t[s]:   2801.62
	FillingsUpdate:  mu: -0.130136446  nElectrons: 400.000000  magneticMoment: [ Abs: 0.03101  Tot: +0.02469 ]
	SubspaceRotationAdjust: set factor to 1
ElecMinimize: Iter:  33  G: -1409.710515283328959  |grad|_K:  5.587e-08  alpha:  5.526e-01  linmin:  3.558e-07  t[s]:   2849.03
	FillingsUpdate:  mu: -0.130113604  nElectrons: 400.000000  magneticMoment: [ Abs: 0.03694  Tot: +0.02957 ]
	SubspaceRotationAdjust: set factor to 1.16
ElecMinimize: Iter:  34  G: -1409.710515450902676  |grad|_K:  4.481e-08  alpha:  4.332e-01  linmin:  1.617e-07  t[s]:   2897.00
	FillingsUpdate:  mu: -0.130148089  nElectrons: 400.000000  magneticMoment: [ Abs: 0.03939  Tot: +0.03166 ]
	SubspaceRotationAdjust: set factor to 1.04
ElecMinimize: Iter:  35  G: -1409.710515526826612  |grad|_K:  4.031e-08  alpha:  3.045e-01  linmin:  8.525e-08  t[s]:   2944.83
	FillingsUpdate:  mu: -0.130122362  nElectrons: 400.000000  magneticMoment: [ Abs: 0.04065  Tot: +0.03283 ]
	SubspaceRotationAdjust: set factor to 0.832
ElecMinimize: Iter:  36  G: -1409.710515572858185  |grad|_K:  2.648e-08  alpha:  2.284e-01  linmin:  1.222e-07  t[s]:   2992.38
	FillingsUpdate:  mu: -0.130134332  nElectrons: 400.000000  magneticMoment: [ Abs: 0.04125  Tot: +0.03350 ]
	SubspaceRotationAdjust: set factor to 0.887
ElecMinimize: Iter:  37  G: -1409.710515607807110  |grad|_K:  2.056e-08  alpha:  4.029e-01  linmin:  3.418e-07  t[s]:   3039.42
	FillingsUpdate:  mu: -0.130124962  nElectrons: 400.000000  magneticMoment: [ Abs: 0.04135  Tot: +0.03373 ]
	SubspaceRotationAdjust: set factor to 1.05
ElecMinimize: Iter:  38  G: -1409.710515631067892  |grad|_K:  1.664e-08  alpha:  4.465e-01  linmin:  3.597e-07  t[s]:   3087.46
	FillingsUpdate:  mu: -0.130134515  nElectrons: 400.000000  magneticMoment: [ Abs: 0.04112  Tot: +0.03364 ]
	SubspaceRotationAdjust: set factor to 1.03
ElecMinimize: Iter:  39  G: -1409.710515645294890  |grad|_K:  1.534e-08  alpha:  4.164e-01  linmin:  1.642e-07  t[s]:   3134.77
	FillingsUpdate:  mu: -0.130123047  nElectrons: 400.000000  magneticMoment: [ Abs: 0.04078  Tot: +0.03339 ]
	SubspaceRotationAdjust: set factor to 0.963
ElecMinimize: Iter:  40  G: -1409.710515653027869  |grad|_K:  1.209e-08  alpha:  2.642e-01  linmin:  1.261e-07  t[s]:   3182.43
	FillingsUpdate:  mu: -0.130129742  nElectrons: 400.000000  magneticMoment: [ Abs: 0.04026  Tot: +0.03297 ]
	SubspaceRotationAdjust: set factor to 0.929
ElecMinimize: Iter:  41  G: -1409.710515658753820  |grad|_K:  8.785e-09  alpha:  3.222e-01  linmin:  5.472e-07  t[s]:   3229.64
ElecMinimize: Converged (|Delta G|<1.000000e-08 for 2 iters).
Setting wave functions to eigenvectors of Hamiltonian
Vacuum energy after initial minimize, F = -1409.710515658753820

Shifting auxilliary hamiltonian by -0.041122 to set nElectrons=400.000000
	Linear fluid (dielectric constant: 78.4, screening length: 5.74355 Bohr) occupying 0.757013 of unit cell:	Completed after 13 iterations at t[s]:   3243.12

-------- Electronic minimization -----------
	Linear fluid (dielectric constant: 78.4, screening length: 5.74355 Bohr) occupying 0.757013 of unit cell:	Completed after 0 iterations at t[s]:   3258.99
	FillingsUpdate:  mu: -0.171251800  nElectrons: 400.000000  magneticMoment: [ Abs: 0.03956  Tot: +0.03227 ]
ElecMinimize: Iter:   0  G: -1409.696383675477136  |grad|_K:  8.159e-05  alpha:  1.000e+00
	Linear fluid (dielectric constant: 78.4, screening length: 5.74355 Bohr) occupying 0.812665 of unit cell:	Completed after 16 iterations at t[s]:   3299.28
	Linear fluid (dielectric constant: 78.4, screening length: 5.74355 Bohr) occupying 0.800501 of unit cell:	Completed after 28 iterations at t[s]:   3324.68
ElecMinimize: 	Step increased G by 3.344183e-01, reducing alpha to 1.224755e-02.
	Linear fluid (dielectric constant: 78.4, screening length: 5.74355 Bohr) occupying 0.757613 of unit cell:	Completed after 16 iterations at t[s]:   3367.82
	FillingsUpdate:  mu: -0.171251800  nElectrons: 400.468506  magneticMoment: [ Abs: 0.03947  Tot: +0.03217 ]
	SubspaceRotationAdjust: set factor to 0.48
ElecMinimize: Iter:   1  G: -1409.709810352715294  |grad|_K:  3.165e-05  alpha:  1.225e-02  linmin: -3.518e-02  t[s]:   3394.34
	Linear fluid (dielectric constant: 78.4, screening length: 5.74355 Bohr) occupying 0.758731 of unit cell:	Completed after 12 iterations at t[s]:   3410.05
	Linear fluid (dielectric constant: 78.4, screening length: 5.74355 Bohr) occupying 0.759716 of unit cell:	Completed after 11 iterations at t[s]:   3430.96
	FillingsUpdate:  mu: -0.171251800  nElectrons: 400.842681  magneticMoment: [ Abs: 0.03935  Tot: +0.03205 ]
	SubspaceRotationAdjust: set factor to 0.315
ElecMinimize: Iter:   2  G: -1409.713159215626774  |grad|_K:  1.918e-05  alpha:  1.985e-02  linmin: -5.220e-04  t[s]:   3456.51
	Linear fluid (dielectric constant: 78.4, screening length: 5.74355 Bohr) occupying 0.760499 of unit cell:	Completed after 11 iterations at t[s]:   3471.65
ElecMinimize: 	Predicted alpha/alphaT>3.000000, increasing alphaT to 5.953545e-02.
	Linear fluid (dielectric constant: 78.4, screening length: 5.74355 Bohr) occupying 0.762336 of unit cell:	Completed after 12 iterations at t[s]:   3493.33
	Linear fluid (dielectric constant: 78.4, screening length: 5.74355 Bohr) occupying 0.767632 of unit cell:	Completed after 11 iterations at t[s]:   3514.62
	FillingsUpdate:  mu: -0.171251800  nElectrons: 401.589040  magneticMoment: [ Abs: 0.03886  Tot: +0.03166 ]
	SubspaceRotationAdjust: set factor to 0.189
ElecMinimize: Iter:   3  G: -1409.720747904643076  |grad|_K:  2.784e-05  alpha:  1.506e-01  linmin: -1.326e-03  t[s]:   3540.52
	Linear fluid (dielectric constant: 78.4, screening length: 5.74355 Bohr) occupying 0.775776 of unit cell:	Completed after 15 iterations at t[s]:   3556.84
	Linear fluid (dielectric constant: 78.4, screening length: 5.74355 Bohr) occupying 0.772414 of unit cell:	Completed after 10 iterations at t[s]:   3578.91
	FillingsUpdate:  mu: -0.171251800  nElectrons: 401.960126  magneticMoment: [ Abs: 0.03836  Tot: +0.03133 ]
	SubspaceRotationAdjust: set factor to 0.31
ElecMinimize: Iter:   4  G: -1409.730255332938441  |grad|_K:  1.250e-05  alpha:  8.830e-02  linmin:  1.307e-05  t[s]:   3604.15
	Linear fluid (dielectric constant: 78.4, screening length: 5.74355 Bohr) occupying 0.772391 of unit cell:	Completed after 13 iterations at t[s]:   3620.11
	Linear fluid (dielectric constant: 78.4, screening length: 5.74355 Bohr) occupying 0.772352 of unit cell:	Completed after 14 iterations at t[s]:   3643.83
	FillingsUpdate:  mu: -0.171251800  nElectrons: 401.987016  magneticMoment: [ Abs: 0.03817  Tot: +0.03122 ]
	SubspaceRotationAdjust: set factor to 0.209
ElecMinimize: Iter:   5  G: -1409.734394321978925  |grad|_K:  1.804e-05  alpha:  2.146e-01  linmin:  5.865e-05  t[s]:   3669.39
	Linear fluid (dielectric constant: 78.4, screening length: 5.74355 Bohr) occupying 0.782096 of unit cell:	Completed after 17 iterations at t[s]:   3685.28
	Linear fluid (dielectric constant: 78.4, screening length: 5.74355 Bohr) occupying 0.779888 of unit cell:	Completed after 12 iterations at t[s]:   3708.63
	FillingsUpdate:  mu: -0.171251800  nElectrons: 402.582707  magneticMoment: [ Abs: 0.03762  Tot: +0.03071 ]
	SubspaceRotationAdjust: set factor to 0.259
ElecMinimize: Iter:   6  G: -1409.740926114113108  |grad|_K:  8.732e-06  alpha:  1.626e-01  linmin: -1.838e-05  t[s]:   3734.42
	Linear fluid (dielectric constant: 78.4, screening length: 5.74355 Bohr) occupying 0.782967 of unit cell:	Completed after 14 iterations at t[s]:   3749.69
	Linear fluid (dielectric constant: 78.4, screening length: 5.74355 Bohr) occupying 0.783577 of unit cell:	Completed after 12 iterations at t[s]:   3772.16
	FillingsUpdate:  mu: -0.171251800  nElectrons: 402.899854  magneticMoment: [ Abs: 0.03735  Tot: +0.03040 ]
	SubspaceRotationAdjust: set factor to 0.215
ElecMinimize: Iter:   7  G: -1409.742769228388852  |grad|_K:  1.056e-05  alpha:  1.965e-01  linmin:  3.876e-04  t[s]:   3797.42
	Linear fluid (dielectric constant: 78.4, screening length: 5.74355 Bohr) occupying 0.784039 of unit cell:	Completed after 13 iterations at t[s]:   3812.60
	Linear fluid (dielectric constant: 78.4, screening length: 5.74355 Bohr) occupying 0.784147 of unit cell:	Completed after 11 iterations at t[s]:   3834.76
	FillingsUpdate:  mu: -0.171251800  nElectrons: 403.017526  magneticMoment: [ Abs: 0.03696  Tot: +0.03001 ]
	SubspaceRotationAdjust: set factor to 0.218
ElecMinimize: Iter:   8  G: -1409.745992778071695  |grad|_K:  5.555e-06  alpha:  2.431e-01  linmin:  3.819e-05  t[s]:   3860.20
	Linear fluid (dielectric constant: 78.4, screening length: 5.74355 Bohr) occupying 0.781770 of unit cell:	Completed after 15 iterations at t[s]:   3876.55
	Linear fluid (dielectric constant: 78.4, screening length: 5.74355 Bohr) occupying 0.782878 of unit cell:	Completed after 13 iterations at t[s]:   3899.35
	FillingsUpdate:  mu: -0.171251800  nElectrons: 402.926791  magneticMoment: [ Abs: 0.03691  Tot: +0.02997 ]
	SubspaceRotationAdjust: set factor to 0.165
ElecMinimize: Iter:   9  G: -1409.746492085561840  |grad|_K:  4.976e-06  alpha:  1.316e-01  linmin:  4.472e-05  t[s]:   3924.67
	Linear fluid (dielectric constant: 78.4, screening length: 5.74355 Bohr) occupying 0.782651 of unit cell:	Completed after 11 iterations at t[s]:   3940.33
ElecMinimize: 	Predicted alpha/alphaT>3.000000, increasing alphaT to 3.949059e-01.
	Linear fluid (dielectric constant: 78.4, screening length: 5.74355 Bohr) occupying 0.782192 of unit cell:	Completed after 12 iterations at t[s]:   3961.97
	Linear fluid (dielectric constant: 78.4, screening length: 5.74355 Bohr) occupying 0.782012 of unit cell:	Completed after 10 iterations at t[s]:   3983.72
	FillingsUpdate:  mu: -0.171251800  nElectrons: 402.909772  magneticMoment: [ Abs: 0.03648  Tot: +0.02954 ]
	SubspaceRotationAdjust: set factor to 0.18
ElecMinimize: Iter:  10  G: -1409.748015245422039  |grad|_K:  4.589e-06  alpha:  4.973e-01  linmin:  8.708e-06  t[s]:   4008.41
	Linear fluid (dielectric constant: 78.4, screening length: 5.74355 Bohr) occupying 0.784510 of unit cell:	Completed after 17 iterations at t[s]:   4025.13
	Linear fluid (dielectric constant: 78.4, screening length: 5.74355 Bohr) occupying 0.782758 of unit cell:	Completed after 15 iterations at t[s]:   4048.19
	FillingsUpdate:  mu: -0.171251800  nElectrons: 402.982638  magneticMoment: [ Abs: 0.03629  Tot: +0.02936 ]
	SubspaceRotationAdjust: set factor to 0.123
	SubspaceRotationAdjust: resetting CG because factor has changed by 0.132414
	Linear fluid (dielectric constant: 78.4, screening length: 5.74355 Bohr) occupying 0.782758 of unit cell:	Completed after 0 iterations at t[s]:   4083.06
ElecMinimize: 	State modified externally: resetting search direction.
ElecMinimize: Iter:  11  G: -1409.748398062463139  |grad|_K:  2.847e-06  alpha:  1.446e-01
	Linear fluid (dielectric constant: 78.4, screening length: 5.74355 Bohr) occupying 0.782427 of unit cell:	Completed after 11 iterations at t[s]:   4120.97
ElecMinimize: 	Predicted alpha/alphaT>3.000000, increasing alphaT to 4.338078e-01.
	Linear fluid (dielectric constant: 78.4, screening length: 5.74355 Bohr) occupying 0.781754 of unit cell:	Completed after 12 iterations at t[s]:   4143.00
	Linear fluid (dielectric constant: 78.4, screening length: 5.74355 Bohr) occupying 0.781703 of unit cell:	Completed after 2 iterations at t[s]:   4162.94
	FillingsUpdate:  mu: -0.171251800  nElectrons: 402.894500  magneticMoment: [ Abs: 0.03620  Tot: +0.02934 ]
	SubspaceRotationAdjust: set factor to 0.104
ElecMinimize: Iter:  12  G: -1409.748856514886029  |grad|_K:  2.637e-06  alpha:  4.553e-01  linmin: -3.667e-04  t[s]:   4186.65
	Linear fluid (dielectric constant: 78.4, screening length: 5.74355 Bohr) occupying 0.782569 of unit cell:	Completed after 13 iterations at t[s]:   4202.12
	Linear fluid (dielectric constant: 78.4, screening length: 5.74355 Bohr) occupying 0.782276 of unit cell:	Completed after 11 iterations at t[s]:   4224.16
	FillingsUpdate:  mu: -0.171251800  nElectrons: 402.936340  magneticMoment: [ Abs: 0.03602  Tot: +0.02922 ]
	SubspaceRotationAdjust: set factor to 0.0731
ElecMinimize: Iter:  13  G: -1409.749118929692713  |grad|_K:  1.659e-06  alpha:  3.004e-01  linmin:  4.546e-05  t[s]:   4249.71
	Linear fluid (dielectric constant: 78.4, screening length: 5.74355 Bohr) occupying 0.782155 of unit cell:	Completed after 4 iterations at t[s]:   4263.36
	Linear fluid (dielectric constant: 78.4, screening length: 5.74355 Bohr) occupying 0.782075 of unit cell:	Completed after 3 iterations at t[s]:   4282.28
	FillingsUpdate:  mu: -0.171251800  nElectrons: 402.917289  magneticMoment: [ Abs: 0.03581  Tot: +0.02910 ]
	SubspaceRotationAdjust: set factor to 0.0941
ElecMinimize: Iter:  14  G: -1409.749289161190063  |grad|_K:  9.975e-07  alpha:  4.979e-01  linmin: -6.407e-05  t[s]:   4305.98
	Linear fluid (dielectric constant: 78.4, screening length: 5.74355 Bohr) occupying 0.781817 of unit cell:	Completed after 5 iterations at t[s]:   4320.05
	Linear fluid (dielectric constant: 78.4, screening length: 5.74355 Bohr) occupying 0.781762 of unit cell:	Completed after 3 iterations at t[s]:   4338.99
	FillingsUpdate:  mu: -0.171251800  nElectrons: 402.892699  magneticMoment: [ Abs: 0.03564  Tot: +0.02901 ]
	SubspaceRotationAdjust: set factor to 0.115
ElecMinimize: Iter:  15  G: -1409.749363709981026  |grad|_K:  8.940e-07  alpha:  6.019e-01  linmin:  2.455e-05  t[s]:   4363.40
	Linear fluid (dielectric constant: 78.4, screening length: 5.74355 Bohr) occupying 0.781471 of unit cell:	Completed after 9 iterations at t[s]:   4377.86
	Linear fluid (dielectric constant: 78.4, screening length: 5.74355 Bohr) occupying 0.781457 of unit cell:	Completed after 2 iterations at t[s]:   4397.85
	FillingsUpdate:  mu: -0.171251800  nElectrons: 402.870696  magneticMoment: [ Abs: 0.03539  Tot: +0.02885 ]
	SubspaceRotationAdjust: set factor to 0.135
ElecMinimize: Iter:  16  G: -1409.749426269644800  |grad|_K:  7.452e-07  alpha:  6.322e-01  linmin: -3.762e-05  t[s]:   4421.17
	Linear fluid (dielectric constant: 78.4, screening length: 5.74355 Bohr) occupying 0.780943 of unit cell:	Completed after 10 iterations at t[s]:   4436.13
	Linear fluid (dielectric constant: 78.4, screening length: 5.74355 Bohr) occupying 0.781061 of unit cell:	Completed after 7 iterations at t[s]:   4456.36
	FillingsUpdate:  mu: -0.171251800  nElectrons: 402.841934  magneticMoment: [ Abs: 0.03518  Tot: +0.02871 ]
	SubspaceRotationAdjust: set factor to 0.1
ElecMinimize: Iter:  17  G: -1409.749460099292946  |grad|_K:  6.712e-07  alpha:  4.880e-01  linmin:  1.833e-05  t[s]:   4480.98
	Linear fluid (dielectric constant: 78.4, screening length: 5.74355 Bohr) occupying 0.781256 of unit cell:	Completed after 11 iterations at t[s]:   4496.52
	Linear fluid (dielectric constant: 78.4, screening length: 5.74355 Bohr) occupying 0.781171 of unit cell:	Completed after 10 iterations at t[s]:   4518.43
	FillingsUpdate:  mu: -0.171251800  nElectrons: 402.851649  magneticMoment: [ Abs: 0.03502  Tot: +0.02858 ]
	SubspaceRotationAdjust: set factor to 0.0738
ElecMinimize: Iter:  18  G: -1409.749475277302054  |grad|_K:  4.277e-07  alpha:  2.750e-01  linmin: -2.559e-06  t[s]:   4543.23
	Linear fluid (dielectric constant: 78.4, screening length: 5.74355 Bohr) occupying 0.781141 of unit cell:	Completed after 2 iterations at t[s]:   4556.61
	Linear fluid (dielectric constant: 78.4, screening length: 5.74355 Bohr) occupying 0.781096 of unit cell:	Completed after 5 iterations at t[s]:   4575.18
	FillingsUpdate:  mu: -0.171251800  nElectrons: 402.847393  magneticMoment: [ Abs: 0.03476  Tot: +0.02838 ]
	SubspaceRotationAdjust: set factor to 0.0847
ElecMinimize: Iter:  19  G: -1409.749490584487830  |grad|_K:  3.610e-07  alpha:  6.828e-01  linmin:  3.327e-05  t[s]:   4599.31
	Linear fluid (dielectric constant: 78.4, screening length: 5.74355 Bohr) occupying 0.781028 of unit cell:	Completed after 9 iterations at t[s]:   4614.24
	Linear fluid (dielectric constant: 78.4, screening length: 5.74355 Bohr) occupying 0.781055 of unit cell:	Completed after 3 iterations at t[s]:   4633.77
	FillingsUpdate:  mu: -0.171251800  nElectrons: 402.844862  magneticMoment: [ Abs: 0.03460  Tot: +0.02825 ]
	SubspaceRotationAdjust: set factor to 0.0909
ElecMinimize: Iter:  20  G: -1409.749497145884106  |grad|_K:  2.738e-07  alpha:  4.146e-01  linmin:  1.094e-05  t[s]:   4657.56
	Linear fluid (dielectric constant: 78.4, screening length: 5.74355 Bohr) occupying 0.781136 of unit cell:	Completed after 7 iterations at t[s]:   4672.05
	Linear fluid (dielectric constant: 78.4, screening length: 5.74355 Bohr) occupying 0.781152 of unit cell:	Completed after 0 iterations at t[s]:   4690.52
	FillingsUpdate:  mu: -0.171251800  nElectrons: 402.852699  magneticMoment: [ Abs: 0.03443  Tot: +0.02811 ]
	SubspaceRotationAdjust: set factor to 0.0929
ElecMinimize: Iter:  21  G: -1409.749501806021726  |grad|_K:  2.222e-07  alpha:  4.943e-01  linmin: -1.604e-04  t[s]:   4713.38
	Linear fluid (dielectric constant: 78.4, screening length: 5.74355 Bohr) occupying 0.781184 of unit cell:	Completed after 2 iterations at t[s]:   4727.03
	Linear fluid (dielectric constant: 78.4, screening length: 5.74355 Bohr) occupying 0.781181 of unit cell:	Completed after 0 iterations at t[s]:   4744.45
	FillingsUpdate:  mu: -0.171251800  nElectrons: 402.855096  magneticMoment: [ Abs: 0.03426  Tot: +0.02798 ]
	SubspaceRotationAdjust: set factor to 0.117
ElecMinimize: Iter:  22  G: -1409.749504866847701  |grad|_K:  2.036e-07  alpha:  4.624e-01  linmin: -3.445e-05  t[s]:   4767.28
	Linear fluid (dielectric constant: 78.4, screening length: 5.74355 Bohr) occupying 0.781155 of unit cell:	Completed after 3 iterations at t[s]:   4780.91
	Linear fluid (dielectric constant: 78.4, screening length: 5.74355 Bohr) occupying 0.781152 of unit cell:	Completed after 0 iterations at t[s]:   4798.97
	FillingsUpdate:  mu: -0.171251800  nElectrons: 402.852931  magneticMoment: [ Abs: 0.03403  Tot: +0.02779 ]
	SubspaceRotationAdjust: set factor to 0.114
ElecMinimize: Iter:  23  G: -1409.749507586486970  |grad|_K:  1.919e-07  alpha:  5.134e-01  linmin: -4.698e-05  t[s]:   4821.83
	Linear fluid (dielectric constant: 78.4, screening length: 5.74355 Bohr) occupying 0.781214 of unit cell:	Completed after 2 iterations at t[s]:   4835.16
	Linear fluid (dielectric constant: 78.4, screening length: 5.74355 Bohr) occupying 0.781200 of unit cell:	Completed after 0 iterations at t[s]:   4852.80
	FillingsUpdate:  mu: -0.171251800  nElectrons: 402.856850  magneticMoment: [ Abs: 0.03380  Tot: +0.02761 ]
	SubspaceRotationAdjust: set factor to 0.127
ElecMinimize: Iter:  24  G: -1409.749509519813273  |grad|_K:  1.616e-07  alpha:  4.001e-01  linmin:  4.990e-05  t[s]:   4875.47
	Linear fluid (dielectric constant: 78.4, screening length: 5.74355 Bohr) occupying 0.781237 of unit cell:	Completed after 0 iterations at t[s]:   4888.52
	Linear fluid (dielectric constant: 78.4, screening length: 5.74355 Bohr) occupying 0.781260 of unit cell:	Completed after 2 iterations at t[s]:   4905.61
	FillingsUpdate:  mu: -0.171251800  nElectrons: 402.861851  magneticMoment: [ Abs: 0.03341  Tot: +0.02730 ]
	SubspaceRotationAdjust: set factor to 0.142
ElecMinimize: Iter:  25  G: -1409.749511418009661  |grad|_K:  1.457e-07  alpha:  6.605e-01  linmin:  5.957e-05  t[s]:   4929.18
	Linear fluid (dielectric constant: 78.4, screening length: 5.74355 Bohr) occupying 0.781264 of unit cell:	Completed after 2 iterations at t[s]:   4942.53
	Linear fluid (dielectric constant: 78.4, screening length: 5.74355 Bohr) occupying 0.781263 of unit cell:	Completed after 2 iterations at t[s]:   4960.68
	FillingsUpdate:  mu: -0.171251800  nElectrons: 402.862318  magneticMoment: [ Abs: 0.03312  Tot: +0.02707 ]
	SubspaceRotationAdjust: set factor to 0.134
ElecMinimize: Iter:  26  G: -1409.749512506504288  |grad|_K:  1.219e-07  alpha:  4.456e-01  linmin:  2.027e-05  t[s]:   4984.08
	Linear fluid (dielectric constant: 78.4, screening length: 5.74355 Bohr) occupying 0.781300 of unit cell:	Completed after 3 iterations at t[s]:   4997.90
	Linear fluid (dielectric constant: 78.4, screening length: 5.74355 Bohr) occupying 0.781293 of unit cell:	Completed after 0 iterations at t[s]:   5015.52
	FillingsUpdate:  mu: -0.171251800  nElectrons: 402.864916  magneticMoment: [ Abs: 0.03288  Tot: +0.02687 ]
	SubspaceRotationAdjust: set factor to 0.107
ElecMinimize: Iter:  27  G: -1409.749513153803036  |grad|_K:  9.703e-08  alpha:  3.609e-01  linmin:  3.213e-05  t[s]:   5038.49
	Linear fluid (dielectric constant: 78.4, screening length: 5.74355 Bohr) occupying 0.781262 of unit cell:	Completed after 2 iterations at t[s]:   5052.12
	Linear fluid (dielectric constant: 78.4, screening length: 5.74355 Bohr) occupying 0.781268 of unit cell:	Completed after 0 iterations at t[s]:   5069.66
	FillingsUpdate:  mu: -0.171251800  nElectrons: 402.863149  magneticMoment: [ Abs: 0.03269  Tot: +0.02673 ]
	SubspaceRotationAdjust: set factor to 0.0737
ElecMinimize: Iter:  28  G: -1409.749513476920129  |grad|_K:  7.240e-08  alpha:  2.940e-01  linmin: -1.353e-05  t[s]:   5092.40
	Linear fluid (dielectric constant: 78.4, screening length: 5.74355 Bohr) occupying 0.781270 of unit cell:	Completed after 0 iterations at t[s]:   5105.26
	Linear fluid (dielectric constant: 78.4, screening length: 5.74355 Bohr) occupying 0.781271 of unit cell:	Completed after 0 iterations at t[s]:   5122.41
	FillingsUpdate:  mu: -0.171251800  nElectrons: 402.863696  magneticMoment: [ Abs: 0.03245  Tot: +0.02654 ]
	SubspaceRotationAdjust: set factor to 0.0965
ElecMinimize: Iter:  29  G: -1409.749513796149813  |grad|_K:  5.824e-08  alpha:  4.836e-01  linmin:  1.020e-07  t[s]:   5145.28
	Linear fluid (dielectric constant: 78.4, screening length: 5.74355 Bohr) occupying 0.781293 of unit cell:	Completed after 2 iterations at t[s]:   5158.52
	Linear fluid (dielectric constant: 78.4, screening length: 5.74355 Bohr) occupying 0.781281 of unit cell:	Completed after 0 iterations at t[s]:   5176.07
	FillingsUpdate:  mu: -0.171251800  nElectrons: 402.864554  magneticMoment: [ Abs: 0.03236  Tot: +0.02646 ]
	SubspaceRotationAdjust: set factor to 0.0802
ElecMinimize: Iter:  30  G: -1409.749513858769660  |grad|_K:  8.551e-08  alpha:  2.175e-01  linmin:  2.087e-04  t[s]:   5198.86
	Linear fluid (dielectric constant: 78.4, screening length: 5.74355 Bohr) occupying 0.781278 of unit cell:	Completed after 1 iterations at t[s]:   5212.35
	Linear fluid (dielectric constant: 78.4, screening length: 5.74355 Bohr) occupying 0.781279 of unit cell:	Completed after 0 iterations at t[s]:   5229.59
	FillingsUpdate:  mu: -0.171251800  nElectrons: 402.864560  magneticMoment: [ Abs: 0.03222  Tot: +0.02636 ]
	SubspaceRotationAdjust: set factor to 0.108
ElecMinimize: Iter:  31  G: -1409.749513916088290  |grad|_K:  5.771e-08  alpha:  1.204e-01  linmin: -7.045e-05  t[s]:   5252.62
	Linear fluid (dielectric constant: 78.4, screening length: 5.74355 Bohr) occupying 0.781272 of unit cell:	Completed after 0 iterations at t[s]:   5265.79
	Linear fluid (dielectric constant: 78.4, screening length: 5.74355 Bohr) occupying 0.781266 of unit cell:	Completed after 1 iterations at t[s]:   5282.94
	FillingsUpdate:  mu: -0.171251800  nElectrons: 402.863633  magneticMoment: [ Abs: 0.03209  Tot: +0.02626 ]
	SubspaceRotationAdjust: set factor to 0.0936
ElecMinimize: Iter:  32  G: -1409.749513955160864  |grad|_K:  3.977e-08  alpha:  2.152e-01  linmin:  2.665e-04  t[s]:   5306.55
	Linear fluid (dielectric constant: 78.4, screening length: 5.74355 Bohr) occupying 0.781263 of unit cell:	Completed after 0 iterations at t[s]:   5319.78
	Linear fluid (dielectric constant: 78.4, screening length: 5.74355 Bohr) occupying 0.781263 of unit cell:	Completed after 0 iterations at t[s]:   5336.94
	FillingsUpdate:  mu: -0.171251800  nElectrons: 402.863468  magneticMoment: [ Abs: 0.03200  Tot: +0.02618 ]
	SubspaceRotationAdjust: set factor to 0.108
ElecMinimize: Iter:  33  G: -1409.749513986237162  |grad|_K:  2.922e-08  alpha:  2.174e-01  linmin: -2.230e-04  t[s]:   5359.76
	Linear fluid (dielectric constant: 78.4, screening length: 5.74355 Bohr) occupying 0.781264 of unit cell:	Completed after 0 iterations at t[s]:   5372.84
	Linear fluid (dielectric constant: 78.4, screening length: 5.74355 Bohr) occupying 0.781265 of unit cell:	Completed after 0 iterations at t[s]:   5389.69
	FillingsUpdate:  mu: -0.171251800  nElectrons: 402.863716  magneticMoment: [ Abs: 0.03188  Tot: +0.02609 ]
	SubspaceRotationAdjust: set factor to 0.128
ElecMinimize: Iter:  34  G: -1409.749514028321528  |grad|_K:  2.558e-08  alpha:  3.281e-01  linmin: -6.034e-07  t[s]:   5412.84
	Linear fluid (dielectric constant: 78.4, screening length: 5.74355 Bohr) occupying 0.781272 of unit cell:	Completed after 0 iterations at t[s]:   5425.71
	Linear fluid (dielectric constant: 78.4, screening length: 5.74355 Bohr) occupying 0.781274 of unit cell:	Completed after 0 iterations at t[s]:   5442.77
	FillingsUpdate:  mu: -0.171251800  nElectrons: 402.864535  magneticMoment: [ Abs: 0.03170  Tot: +0.02594 ]
	SubspaceRotationAdjust: set factor to 0.159
ElecMinimize: Iter:  35  G: -1409.749514061533318  |grad|_K:  2.677e-08  alpha:  4.084e-01  linmin: -3.140e-07  t[s]:   5465.43
	Linear fluid (dielectric constant: 78.4, screening length: 5.74355 Bohr) occupying 0.781296 of unit cell:	Completed after 2 iterations at t[s]:   5478.66
	Linear fluid (dielectric constant: 78.4, screening length: 5.74355 Bohr) occupying 0.781278 of unit cell:	Completed after 0 iterations at t[s]:   5496.44
	FillingsUpdate:  mu: -0.171251800  nElectrons: 402.864842  magneticMoment: [ Abs: 0.03166  Tot: +0.02591 ]
	SubspaceRotationAdjust: set factor to 0.12
ElecMinimize: Iter:  36  G: -1409.749514086682666  |grad|_K:  8.371e-08  alpha:  6.976e-02  linmin:  4.095e-04  t[s]:   5519.01
ElecMinimize: 	Bad step direction: g.d > 0.
ElecMinimize: 	Undoing step.
	Linear fluid (dielectric constant: 78.4, screening length: 5.74355 Bohr) occupying 0.781278 of unit cell:	Completed after 0 iterations at t[s]:   5532.09
ElecMinimize: 	Step failed: resetting search direction.
	FillingsUpdate:  mu: -0.171251800  nElectrons: 402.864842  magneticMoment: [ Abs: 0.03166  Tot: +0.02591 ]
	SubspaceRotationAdjust: set factor to 0.101
ElecMinimize: Iter:  37  G: -1409.749514086694035  |grad|_K:  7.668e-08  alpha:  0.000e+00
	Linear fluid (dielectric constant: 78.4, screening length: 5.74355 Bohr) occupying 0.781269 of unit cell:	Completed after 2 iterations at t[s]:   5568.35
	Linear fluid (dielectric constant: 78.4, screening length: 5.74355 Bohr) occupying 0.781274 of unit cell:	Completed after 0 iterations at t[s]:   5586.03
ElecMinimize: 	Step increased G by 3.422497e-08, reducing alpha to 2.784312e-03.
	Linear fluid (dielectric constant: 78.4, screening length: 5.74355 Bohr) occupying 0.781277 of unit cell:	Completed after 0 iterations at t[s]:   5619.80
ElecMinimize: 	Step increased G by 3.966738e-08, reducing alpha to 2.784312e-04.
	Linear fluid (dielectric constant: 78.4, screening length: 5.74355 Bohr) occupying 0.781278 of unit cell:	Completed after 0 iterations at t[s]:   5653.63
ElecMinimize: 	Step increased G by 4.020785e-08, reducing alpha to 2.784312e-05.
ElecMinimize: 	Step failed to reduce G after 3 attempts. Quitting step.
ElecMinimize: 	Undoing step.
	Linear fluid (dielectric constant: 78.4, screening length: 5.74355 Bohr) occupying 0.781278 of unit cell:	Completed after 0 iterations at t[s]:   5687.23
ElecMinimize: 	Step failed along negative gradient direction.
ElecMinimize: Probably at roundoff error limit. (Stopping)
Setting wave functions to eigenvectors of Hamiltonian
Single-point solvation energy estimate, DeltaG = -0.038998387720085

# Ionic positions in lattice coordinates:
ion V   0.083332210555556   0.166667776027779   0.500000008835160 1
ion V   0.333332210555556   0.166667776027779   0.500000008835160 1
ion V   0.583332210555556   0.166667776027779   0.500000008835160 1
ion V   0.833332210555556   0.166667776027779   0.500000008835160 1
ion V   0.083332210555556   0.416667776027779   0.500000008835160 1
ion V   0.333332210555556   0.416667776027779   0.500000008835160 1
ion V   0.583332210555556   0.416667776027779   0.500000008835160 1
ion V   0.833332210555556   0.416667776027779   0.500000008835160 1
ion V   0.083332210555556   0.666667776027779   0.500000008835160 1
ion V   0.333332210555556   0.666667776027779   0.500000008835160 1
ion V   0.583332210555556   0.666667776027779   0.500000008835160 1
ion V   0.833332210555556   0.666667776027779   0.500000008835160 1
ion V   0.083332210555556   0.916667776027779   0.500000008835160 1
ion V   0.333332210555556   0.916667776027779   0.500000008835160 1
ion V   0.583332210555556   0.916667776027779   0.500000008835160 1
ion V   0.833332210555556   0.916667776027779   0.500000008835160 1
ion S  -0.000001122777777   0.000001109361112   0.417322835368676 1
ion S  -0.000001122777777   0.000001109361112   0.582677182301644 1
ion S   0.249998877222223   0.000001109361112   0.417322835368676 1
ion S   0.249998877222223   0.000001109361112   0.582677182301644 1
ion S   0.499998877222223   0.000001109361112   0.417322835368676 1
ion S   0.499998877222223   0.000001109361112   0.582677182301644 1
ion S   0.749998877222223   0.000001109361112   0.417322835368676 1
ion S   0.749998877222223   0.000001109361112   0.582677182301644 1
ion S   0.999998877222223   0.250001109361112   0.417322835368676 1
ion S   0.999998877222223   0.250001109361112   0.582677182301644 1
ion S   0.249998877222223   0.250001109361112   0.417322835368676 1
ion S   0.249998877222223   0.250001109361112   0.582677182301644 1
ion S   0.499998877222223   0.250001109361112   0.417322835368676 1
ion S   0.499998877222223   0.250001109361112   0.582677182301644 1
ion S   0.749998877222223   0.250001109361112   0.417322835368676 1
ion S   0.749998877222223   0.250001109361112   0.582677182301644 1
ion S   0.999998877222223   0.500001109361112   0.417322835368676 1
ion S   0.999998877222223   0.500001109361112   0.582677182301644 1
ion S   0.249998877222223   0.500001109361112   0.417322835368676 1
ion S   0.249998877222223   0.500001109361112   0.582677182301644 1
ion S   0.499998877222223   0.500001109361112   0.417322835368676 1
ion S   0.499998877222223   0.500001109361112   0.582677182301644 1
ion S   0.749998877222223   0.500001109361112   0.417322835368676 1
ion S   0.749998877222223   0.500001109361112   0.582677182301644 1
ion S   0.999998877222223   0.750001109361112   0.417322835368676 1
ion S   0.999998877222223   0.750001109361112   0.582677182301644 1
ion S   0.249998877222223   0.750001109361112   0.417322835368676 1
ion S   0.249998877222223   0.750001109361112   0.582677182301644 1
ion S   0.499998877222223   0.750001109361112   0.417322835368676 1
ion S   0.499998877222223   0.750001109361112   0.582677182301644 1
ion S   0.749998877222223   0.750001109361112   0.417322835368676 1
ion S   0.749998877222223   0.750001109361112   0.582677182301644 1


# Forces in Lattice coordinates:
force V  -0.000000000000000  -0.000000000000000   0.000000000000000 1
force V  -0.000000000000000  -0.000000000000000  -0.000000000000000 1
force V   0.000000000000000  -0.000000000000000  -0.000000000000000 1
force V  -0.000000000000000  -0.000000000000000  -0.000000000000000 1
force V  -0.000000000000000  -0.000000000000000  -0.000000000000000 1
force V   0.000000000000000  -0.000000000000000  -0.000000000000000 1
force V   0.000000000000000  -0.000000000000000   0.000000000000000 1
force V   0.000000000000000  -0.000000000000000   0.000000000000000 1
force V   0.000000000000000  -0.000000000000000  -0.000000000000000 1
force V  -0.000000000000000  -0.000000000000000   0.000000000000000 1
force V  -0.000000000000000  -0.000000000000000   0.000000000000000 1
force V  -0.000000000000000  -0.000000000000000   0.000000000000000 1
force V   0.000000000000000  -0.000000000000000  -0.000000000000000 1
force V   0.000000000000000  -0.000000000000000   0.000000000000000 1
force V  -0.000000000000000  -0.000000000000000  -0.000000000000000 1
force V  -0.000000000000000  -0.000000000000000  -0.000000000000000 1
force S   0.000000000000000   0.000000000000000   0.042130614899889 1
force S   0.000000000000000  -0.000000000000000  -0.042130614900003 1
force S  -0.000000000000000   0.000000000000000   0.042130614899889 1
force S   0.000000000000000   0.000000000000000  -0.042130614900004 1
force S  -0.000000000000000   0.000000000000000   0.042130614900004 1
force S  -0.000000000000000   0.000000000000000  -0.042130614899889 1
force S   0.000000000000000   0.000000000000000   0.042130614900004 1
force S   0.000000000000000   0.000000000000000  -0.042130614900004 1
force S  -0.000000000000000   0.000000000000000   0.042130614899662 1
force S  -0.000000000000000   0.000000000000000  -0.042130614899890 1
force S  -0.000000000000000   0.000000000000000   0.042130614900004 1
force S   0.000000000000000   0.000000000000000  -0.042130614900118 1
force S  -0.000000000000000   0.000000000000000   0.042130614900004 1
force S  -0.000000000000000   0.000000000000000  -0.042130614900004 1
force S   0.000000000000000   0.000000000000000   0.042130614900004 1
force S  -0.000000000000000   0.000000000000000  -0.042130614899890 1
force S   0.000000000000000   0.000000000000000   0.042130614900004 1
force S  -0.000000000000000   0.000000000000000  -0.042130614899777 1
force S  -0.000000000000000   0.000000000000000   0.042130614900003 1
force S  -0.000000000000000   0.000000000000000  -0.042130614900003 1
force S  -0.000000000000000   0.000000000000000   0.042130614900004 1
force S   0.000000000000000  -0.000000000000000  -0.042130614900004 1
force S   0.000000000000000   0.000000000000000   0.042130614899890 1
force S  -0.000000000000000   0.000000000000000  -0.042130614900004 1
force S   0.000000000000000   0.000000000000000   0.042130614899889 1
force S  -0.000000000000000   0.000000000000000  -0.042130614899890 1
force S  -0.000000000000000   0.000000000000000   0.042130614899889 1
force S  -0.000000000000000  -0.000000000000000  -0.042130614899890 1
force S  -0.000000000000000   0.000000000000000   0.042130614899889 1
force S   0.000000000000000   0.000000000000000  -0.042130614899890 1
force S   0.000000000000000   0.000000000000000   0.042130614899889 1
force S   0.000000000000000   0.000000000000000  -0.042130614900004 1

# Energy components:
   A_diel =       -0.5043462723098967
   Eewald =     8150.9803012085958471
       EH =     9480.3872731534356717
     Eloc =   -19383.2474459805962397
      Enl =       79.7758214062110085
      Exc =     -293.0008533988693671
 Exc_core =       69.5498433525552002
       KE =      417.4524180860669276
  MuShift =       -0.0338584287464760
-------------------------------------
     Etot =    -1478.6408468736572104
       TS =        0.0999960576640809
-------------------------------------
        F =    -1478.7408429313213674
      muN =      -68.9913288848474195
-------------------------------------
        G =    -1409.7495140464739052

IonicMinimize: Iter:   0  G: -1409.749514046473905  |grad|_K:  5.845e-04  t[s]:   5722.89

#--- Lowdin population analysis ---
# oxidation-state V +0.603 +0.603 +0.603 +0.603 +0.603 +0.603 +0.603 +0.603 +0.603 +0.603 +0.603 +0.603 +0.603 +0.603 +0.603 +0.603
# magnetic-moments V +0.002 +0.002 +0.002 +0.002 +0.002 +0.002 +0.002 +0.002 +0.002 +0.002 +0.002 +0.002 +0.002 +0.002 +0.002 +0.002
# oxidation-state S -0.288 -0.288 -0.288 -0.288 -0.288 -0.288 -0.288 -0.288 -0.288 -0.288 -0.288 -0.288 -0.288 -0.288 -0.288 -0.288 -0.288 -0.288 -0.288 -0.288 -0.288 -0.288 -0.288 -0.288 -0.288 -0.288 -0.288 -0.288 -0.288 -0.288 -0.288 -0.288
# magnetic-moments S -0.000 -0.000 -0.000 -0.000 -0.000 -0.000 -0.000 -0.000 -0.000 -0.000 -0.000 -0.000 -0.000 -0.000 -0.000 -0.000 -0.000 -0.000 -0.000 -0.000 -0.000 -0.000 -0.000 -0.000 -0.000 -0.000 -0.000 -0.000 -0.000 -0.000 -0.000 -0.000

Shifting auxilliary hamiltonian by 0.000011 to set nElectrons=402.864839
	Linear fluid (dielectric constant: 78.4, screening length: 5.74355 Bohr) occupying 0.781313 of unit cell:	Completed after 5 iterations at t[s]:   5737.67

-------- Electronic minimization -----------
	Linear fluid (dielectric constant: 78.4, screening length: 5.74355 Bohr) occupying 0.781313 of unit cell:	Completed after 0 iterations at t[s]:   5753.27
	FillingsUpdate:  mu: -0.171251800  nElectrons: 402.864839  magneticMoment: [ Abs: 0.03038  Tot: +0.02478 ]
ElecMinimize: Iter:   0  G: -1409.749552004357383  |grad|_K:  2.235e-07  alpha:  1.000e+00
	Linear fluid (dielectric constant: 78.4, screening length: 5.74355 Bohr) occupying 0.781519 of unit cell:	Completed after 9 iterations at t[s]:   5792.16
	Linear fluid (dielectric constant: 78.4, screening length: 5.74355 Bohr) occupying 0.781398 of unit cell:	Completed after 9 iterations at t[s]:   5813.11
	FillingsUpdate:  mu: -0.171251800  nElectrons: 402.871434  magneticMoment: [ Abs: 0.03030  Tot: +0.02474 ]
	SubspaceRotationAdjust: set factor to 0.0701
ElecMinimize: Iter:   1  G: -1409.749554434690708  |grad|_K:  1.970e-07  alpha:  4.101e-01  linmin:  6.286e-04  t[s]:   5837.62
	Linear fluid (dielectric constant: 78.4, screening length: 5.74355 Bohr) occupying 0.781344 of unit cell:	Completed after 7 iterations at t[s]:   5851.69
	Linear fluid (dielectric constant: 78.4, screening length: 5.74355 Bohr) occupying 0.781353 of unit cell:	Completed after 0 iterations at t[s]:   5870.41
	FillingsUpdate:  mu: -0.171251800  nElectrons: 402.868062  magneticMoment: [ Abs: 0.03019  Tot: +0.02468 ]
	SubspaceRotationAdjust: set factor to 0.0536
ElecMinimize: Iter:   2  G: -1409.749556077027364  |grad|_K:  1.043e-07  alpha:  3.402e-01  linmin:  2.298e-03  t[s]:   5892.89
	Linear fluid (dielectric constant: 78.4, screening length: 5.74355 Bohr) occupying 0.781352 of unit cell:	Completed after 2 iterations at t[s]:   5906.54
	Linear fluid (dielectric constant: 78.4, screening length: 5.74355 Bohr) occupying 0.781352 of unit cell:	Completed after 0 iterations at t[s]:   5924.05
	FillingsUpdate:  mu: -0.171251800  nElectrons: 402.868024  magneticMoment: [ Abs: 0.03013  Tot: +0.02463 ]
	SubspaceRotationAdjust: set factor to 0.0716
ElecMinimize: Iter:   3  G: -1409.749556463400722  |grad|_K:  5.560e-08  alpha:  3.200e-01  linmin: -4.182e-03  t[s]:   5946.94
	Linear fluid (dielectric constant: 78.4, screening length: 5.74355 Bohr) occupying 0.781347 of unit cell:	Completed after 0 iterations at t[s]:   5960.11
ElecMinimize: 	Predicted alpha/alphaT>3.000000, increasing alphaT to 9.599227e-01.
	Linear fluid (dielectric constant: 78.4, screening length: 5.74355 Bohr) occupying 0.781336 of unit cell:	Completed after 2 iterations at t[s]:   5977.24
	Linear fluid (dielectric constant: 78.4, screening length: 5.74355 Bohr) occupying 0.781336 of unit cell:	Completed after 0 iterations at t[s]:   5995.08
	FillingsUpdate:  mu: -0.171251800  nElectrons: 402.866960  magneticMoment: [ Abs: 0.02998  Tot: +0.02454 ]
	SubspaceRotationAdjust: set factor to 0.0878
ElecMinimize: Iter:   4  G: -1409.749556917474365  |grad|_K:  5.353e-08  alpha:  9.969e-01  linmin: -2.898e-04  t[s]:   6018.13
	Linear fluid (dielectric constant: 78.4, screening length: 5.74355 Bohr) occupying 0.781343 of unit cell:	Completed after 1 iterations at t[s]:   6031.40
	Linear fluid (dielectric constant: 78.4, screening length: 5.74355 Bohr) occupying 0.781344 of unit cell:	Completed after 0 iterations at t[s]:   6048.81
	FillingsUpdate:  mu: -0.171251800  nElectrons: 402.867737  magneticMoment: [ Abs: 0.02975  Tot: +0.02437 ]
	SubspaceRotationAdjust: set factor to 0.112
ElecMinimize: Iter:   5  G: -1409.749557295420800  |grad|_K:  6.167e-08  alpha:  1.018e+00  linmin: -1.173e-04  t[s]:   6071.70
	Linear fluid (dielectric constant: 78.4, screening length: 5.74355 Bohr) occupying 0.781378 of unit cell:	Completed after 3 iterations at t[s]:   6085.26
	Linear fluid (dielectric constant: 78.4, screening length: 5.74355 Bohr) occupying 0.781361 of unit cell:	Completed after 2 iterations at t[s]:   6103.69
	FillingsUpdate:  mu: -0.171251800  nElectrons: 402.869152  magneticMoment: [ Abs: 0.02954  Tot: +0.02421 ]
	SubspaceRotationAdjust: set factor to 0.0825
ElecMinimize: Iter:   6  G: -1409.749557521911584  |grad|_K:  8.079e-08  alpha:  5.115e-01  linmin:  1.155e-04  t[s]:   6127.11
	Linear fluid (dielectric constant: 78.4, screening length: 5.74355 Bohr) occupying 0.781328 of unit cell:	Completed after 2 iterations at t[s]:   6140.64
	Linear fluid (dielectric constant: 78.4, screening length: 5.74355 Bohr) occupying 0.781334 of unit cell:	Completed after 0 iterations at t[s]:   6158.02
	FillingsUpdate:  mu: -0.171251800  nElectrons: 402.867150  magneticMoment: [ Abs: 0.02921  Tot: +0.02395 ]
	SubspaceRotationAdjust: set factor to 0.136
ElecMinimize: Iter:   7  G: -1409.749557838794090  |grad|_K:  5.341e-08  alpha:  4.073e-01  linmin:  7.298e-05  t[s]:   6181.08
	Linear fluid (dielectric constant: 78.4, screening length: 5.74355 Bohr) occupying 0.781313 of unit cell:	Completed after 0 iterations at t[s]:   6194.05
	Linear fluid (dielectric constant: 78.4, screening length: 5.74355 Bohr) occupying 0.781283 of unit cell:	Completed after 3 iterations at t[s]:   6211.61
ElecMinimize: 	Step increased G by 2.928300e-08, reducing alpha to 9.675825e-02.
	Linear fluid (dielectric constant: 78.4, screening length: 5.74355 Bohr) occupying 0.781329 of unit cell:	Completed after 2 iterations at t[s]:   6246.71
	FillingsUpdate:  mu: -0.171251800  nElectrons: 402.866739  magneticMoment: [ Abs: 0.02917  Tot: +0.02391 ]
	SubspaceRotationAdjust: set factor to 0.141
ElecMinimize: Iter:   8  G: -1409.749557885556897  |grad|_K:  4.908e-08  alpha:  9.676e-02  linmin: -6.164e-04  t[s]:   6270.11
	Linear fluid (dielectric constant: 78.4, screening length: 5.74355 Bohr) occupying 0.781327 of unit cell:	Completed after 0 iterations at t[s]:   6283.13
ElecMinimize: 	Predicted alpha/alphaT>3.000000, increasing alphaT to 2.902748e-01.
	Linear fluid (dielectric constant: 78.4, screening length: 5.74355 Bohr) occupying 0.781322 of unit cell:	Completed after 0 iterations at t[s]:   6299.74
	Linear fluid (dielectric constant: 78.4, screening length: 5.74355 Bohr) occupying 0.781317 of unit cell:	Completed after 0 iterations at t[s]:   6316.52
	FillingsUpdate:  mu: -0.171251800  nElectrons: 402.865682  magneticMoment: [ Abs: 0.02891  Tot: +0.02369 ]
	SubspaceRotationAdjust: set factor to 0.157
ElecMinimize: Iter:   9  G: -1409.749558115946911  |grad|_K:  4.602e-08  alpha:  4.721e-01  linmin:  5.464e-08  t[s]:   6339.39
	Linear fluid (dielectric constant: 78.4, screening length: 5.74355 Bohr) occupying 0.781312 of unit cell:	Completed after 0 iterations at t[s]:   6352.34
	Linear fluid (dielectric constant: 78.4, screening length: 5.74355 Bohr) occupying 0.781312 of unit cell:	Completed after 0 iterations at t[s]:   6369.37
	FillingsUpdate:  mu: -0.171251800  nElectrons: 402.865127  magneticMoment: [ Abs: 0.02862  Tot: +0.02344 ]
	SubspaceRotationAdjust: set factor to 0.165
ElecMinimize: Iter:  10  G: -1409.749558236420853  |grad|_K:  4.350e-08  alpha:  4.583e-01  linmin: -3.802e-08  t[s]:   6392.18
	Linear fluid (dielectric constant: 78.4, screening length: 5.74355 Bohr) occupying 0.781312 of unit cell:	Completed after 0 iterations at t[s]:   6405.37
	Linear fluid (dielectric constant: 78.4, screening length: 5.74355 Bohr) occupying 0.781312 of unit cell:	Completed after 0 iterations at t[s]:   6422.54
	FillingsUpdate:  mu: -0.171251800  nElectrons: 402.864970  magneticMoment: [ Abs: 0.02836  Tot: +0.02321 ]
	SubspaceRotationAdjust: set factor to 0.172
ElecMinimize: Iter:  11  G: -1409.749558312271347  |grad|_K:  3.707e-08  alpha:  3.409e-01  linmin: -1.637e-05  t[s]:   6445.58
	Linear fluid (dielectric constant: 78.4, screening length: 5.74355 Bohr) occupying 0.781315 of unit cell:	Completed after 0 iterations at t[s]:   6458.56
	Linear fluid (dielectric constant: 78.4, screening length: 5.74355 Bohr) occupying 0.781315 of unit cell:	Completed after 0 iterations at t[s]:   6475.33
	FillingsUpdate:  mu: -0.171251800  nElectrons: 402.865085  magneticMoment: [ Abs: 0.02809  Tot: +0.02298 ]
	SubspaceRotationAdjust: set factor to 0.183
ElecMinimize: Iter:  12  G: -1409.749558376948244  |grad|_K:  2.681e-08  alpha:  3.566e-01  linmin: -2.295e-08  t[s]:   6498.14
	Linear fluid (dielectric constant: 78.4, screening length: 5.74355 Bohr) occupying 0.781321 of unit cell:	Completed after 2 iterations at t[s]:   6511.76
	Linear fluid (dielectric constant: 78.4, screening length: 5.74355 Bohr) occupying 0.781316 of unit cell:	Completed after 0 iterations at t[s]:   6529.27
ElecMinimize: 	Step increased G by 4.645335e-08, reducing alpha to 8.547111e-03.
	Linear fluid (dielectric constant: 78.4, screening length: 5.74355 Bohr) occupying 0.781315 of unit cell:	Completed after 0 iterations at t[s]:   6563.29
[...]
	Linear fluid (dielectric constant: 78.4, screening length: 5.74355 Bohr) occupying 0.781535 of unit cell:	Completed after 2 iterations at t[s]:   7527.83
	FillingsUpdate:  mu: -0.171251800  nElectrons: 402.872004  magneticMoment: [ Abs: 0.02563  Tot: +0.02092 ]
	SubspaceRotationAdjust: set factor to 0.0527
ElecMinimize: Iter:   8  G: -1409.749652462577842  |grad|_K:  2.180e-07  alpha:  7.135e-01  linmin:  5.145e-05  t[s]:   7551.48
	Linear fluid (dielectric constant: 78.4, screening length: 5.74355 Bohr) occupying 0.781464 of unit cell:	Completed after 3 iterations at t[s]:   7565.25
	Linear fluid (dielectric constant: 78.4, screening length: 5.74355 Bohr) occupying 0.781470 of unit cell:	Completed after 0 iterations at t[s]:   7583.17
	FillingsUpdate:  mu: -0.171251800  nElectrons: 402.866098  magneticMoment: [ Abs: 0.02543  Tot: +0.02076 ]
	SubspaceRotationAdjust: set factor to 0.0575
ElecMinimize: Iter:   9  G: -1409.749656243771369  |grad|_K:  1.636e-07  alpha:  6.485e-01  linmin:  3.369e-05  t[s]:   7606.12
	Linear fluid (dielectric constant: 78.4, screening length: 5.74355 Bohr) occupying 0.781439 of unit cell:	Completed after 2 iterations at t[s]:   7619.59
	Linear fluid (dielectric constant: 78.4, screening length: 5.74355 Bohr) occupying 0.781443 of unit cell:	Completed after 0 iterations at t[s]:   7637.24
	FillingsUpdate:  mu: -0.171251800  nElectrons: 402.863307  magneticMoment: [ Abs: 0.02528  Tot: +0.02065 ]
	SubspaceRotationAdjust: set factor to 0.0645
ElecMinimize: Iter:  10  G: -1409.749658095963923  |grad|_K:  1.090e-07  alpha:  5.638e-01  linmin: -1.294e-06  t[s]:   7660.11
	Linear fluid (dielectric constant: 78.4, screening length: 5.74355 Bohr) occupying 0.781437 of unit cell:	Completed after 0 iterations at t[s]:   7673.21
	Linear fluid (dielectric constant: 78.4, screening length: 5.74355 Bohr) occupying 0.781435 of unit cell:	Completed after 2 iterations at t[s]:   7690.91
	FillingsUpdate:  mu: -0.171251800  nElectrons: 402.861996  magneticMoment: [ Abs: 0.02513  Tot: +0.02055 ]
	SubspaceRotationAdjust: set factor to 0.0767
ElecMinimize: Iter:  11  G: -1409.749659126023744  |grad|_K:  8.759e-08  alpha:  7.355e-01  linmin:  5.641e-05  t[s]:   7714.31
	Linear fluid (dielectric constant: 78.4, screening length: 5.74355 Bohr) occupying 0.781448 of unit cell:	Completed after 0 iterations at t[s]:   7727.30
	Linear fluid (dielectric constant: 78.4, screening length: 5.74355 Bohr) occupying 0.781450 of unit cell:	Completed after 0 iterations at t[s]:   7744.08
	FillingsUpdate:  mu: -0.171251800  nElectrons: 402.862627  magneticMoment: [ Abs: 0.02495  Tot: +0.02042 ]
	SubspaceRotationAdjust: set factor to 0.0948
ElecMinimize: Iter:  12  G: -1409.749659891569308  |grad|_K:  7.739e-08  alpha:  8.213e-01  linmin:  2.634e-08  t[s]:   7766.89
	Linear fluid (dielectric constant: 78.4, screening length: 5.74355 Bohr) occupying 0.781490 of unit cell:	Completed after 3 iterations at t[s]:   7780.50
	Linear fluid (dielectric constant: 78.4, screening length: 5.74355 Bohr) occupying 0.781472 of unit cell:	Completed after 0 iterations at t[s]:   7798.23
	FillingsUpdate:  mu: -0.171251800  nElectrons: 402.864147  magneticMoment: [ Abs: 0.02482  Tot: +0.02033 ]
	SubspaceRotationAdjust: set factor to 0.0778
ElecMinimize: Iter:  13  G: -1409.749660201176539  |grad|_K:  9.566e-08  alpha:  4.573e-01  linmin:  1.529e-04  t[s]:   7821.04
	Linear fluid (dielectric constant: 78.4, screening length: 5.74355 Bohr) occupying 0.781451 of unit cell:	Completed after 2 iterations at t[s]:   7834.65
	Linear fluid (dielectric constant: 78.4, screening length: 5.74355 Bohr) occupying 0.781463 of unit cell:	Completed after 2 iterations at t[s]:   7852.51
	FillingsUpdate:  mu: -0.171251800  nElectrons: 402.863296  magneticMoment: [ Abs: 0.02471  Tot: +0.02025 ]
	SubspaceRotationAdjust: set factor to 0.0732
ElecMinimize: Iter:  14  G: -1409.749660355912283  |grad|_K:  6.310e-08  alpha:  2.105e-01  linmin:  2.336e-05  t[s]:   7875.79
	Linear fluid (dielectric constant: 78.4, screening length: 5.74355 Bohr) occupying 0.781462 of unit cell:	Completed after 0 iterations at t[s]:   7888.83
	Linear fluid (dielectric constant: 78.4, screening length: 5.74355 Bohr) occupying 0.781461 of unit cell:	Completed after 0 iterations at t[s]:   7905.70
	FillingsUpdate:  mu: -0.171251800  nElectrons: 402.863191  magneticMoment: [ Abs: 0.02453  Tot: +0.02011 ]
	SubspaceRotationAdjust: set factor to 0.0817
ElecMinimize: Iter:  15  G: -1409.749660640437924  |grad|_K:  4.904e-08  alpha:  5.890e-01  linmin:  4.400e-07  t[s]:   7928.29
	Linear fluid (dielectric constant: 78.4, screening length: 5.74355 Bohr) occupying 0.781469 of unit cell:	Completed after 2 iterations at t[s]:   7941.71
	Linear fluid (dielectric constant: 78.4, screening length: 5.74355 Bohr) occupying 0.781466 of unit cell:	Completed after 0 iterations at t[s]:   7959.33
	FillingsUpdate:  mu: -0.171251800  nElectrons: 402.863636  magneticMoment: [ Abs: 0.02443  Tot: +0.02003 ]
	SubspaceRotationAdjust: set factor to 0.0553
ElecMinimize: Iter:  16  G: -1409.749660702608480  |grad|_K:  6.474e-08  alpha:  3.580e-01  linmin: -2.394e-04  t[s]:   7981.97
	Linear fluid (dielectric constant: 78.4, screening length: 5.74355 Bohr) occupying 0.781508 of unit cell:	Completed after 2 iterations at t[s]:   7995.40
	Linear fluid (dielectric constant: 78.4, screening length: 5.74355 Bohr) occupying 0.781490 of unit cell:	Completed after 0 iterations at t[s]:   8013.03
	FillingsUpdate:  mu: -0.171251800  nElectrons: 402.865614  magneticMoment: [ Abs: 0.02431  Tot: +0.01994 ]
	SubspaceRotationAdjust: set factor to 0.0522
ElecMinimize: Iter:  17  G: -1409.749660849719021  |grad|_K:  4.224e-08  alpha:  2.062e-01  linmin:  2.135e-04  t[s]:   8036.00
	Linear fluid (dielectric constant: 78.4, screening length: 5.74355 Bohr) occupying 0.781500 of unit cell:	Completed after 0 iterations at t[s]:   8049.01
	Linear fluid (dielectric constant: 78.4, screening length: 5.74355 Bohr) occupying 0.781516 of unit cell:	Completed after 0 iterations at t[s]:   8065.94
	FillingsUpdate:  mu: -0.171251800  nElectrons: 402.867827  magneticMoment: [ Abs: 0.02414  Tot: +0.01980 ]
	SubspaceRotationAdjust: set factor to 0.0535
ElecMinimize: Iter:  18  G: -1409.749660933762243  |grad|_K:  3.124e-08  alpha:  5.570e-01  linmin:  7.724e-08  t[s]:   8089.01
	Linear fluid (dielectric constant: 78.4, screening length: 5.74355 Bohr) occupying 0.781532 of unit cell:	Completed after 2 iterations at t[s]:   8102.66
	Linear fluid (dielectric constant: 78.4, screening length: 5.74355 Bohr) occupying 0.781524 of unit cell:	Completed after 0 iterations at t[s]:   8120.26
	FillingsUpdate:  mu: -0.171251800  nElectrons: 402.868489  magneticMoment: [ Abs: 0.02408  Tot: +0.01976 ]
	SubspaceRotationAdjust: set factor to 0.0522
ElecMinimize: Iter:  19  G: -1409.749660940029344  |grad|_K:  3.200e-08  alpha:  2.613e-01  linmin: -1.254e-05  t[s]:   8142.92
	Linear fluid (dielectric constant: 78.4, screening length: 5.74355 Bohr) occupying 0.781526 of unit cell:	Completed after 0 iterations at t[s]:   8156.06
	Linear fluid (dielectric constant: 78.4, screening length: 5.74355 Bohr) occupying 0.781527 of unit cell:	Completed after 0 iterations at t[s]:   8172.84
	FillingsUpdate:  mu: -0.171251800  nElectrons: 402.868896  magneticMoment: [ Abs: 0.02398  Tot: +0.01968 ]
	SubspaceRotationAdjust: set factor to 0.0655
ElecMinimize: Iter:  20  G: -1409.749660982303340  |grad|_K:  2.793e-08  alpha:  3.269e-01  linmin: -1.991e-07  t[s]:   8195.77
	Linear fluid (dielectric constant: 78.4, screening length: 5.74355 Bohr) occupying 0.781524 of unit cell:	Completed after 1 iterations at t[s]:   8208.92
	Linear fluid (dielectric constant: 78.4, screening length: 5.74355 Bohr) occupying 0.781526 of unit cell:	Completed after 0 iterations at t[s]:   8226.43
ElecMinimize: 	Step increased G by 3.055902e-10, reducing alpha to 1.633563e-02.
	Linear fluid (dielectric constant: 78.4, screening length: 5.74355 Bohr) occupying 0.781527 of unit cell:	Completed after 0 iterations at t[s]:   8260.15
ElecMinimize: 	Step increased G by 1.131684e-08, reducing alpha to 1.633563e-03.
	Linear fluid (dielectric constant: 78.4, screening length: 5.74355 Bohr) occupying 0.781527 of unit cell:	Completed after 0 iterations at t[s]:   8294.13
ElecMinimize: 	Step increased G by 1.298554e-08, reducing alpha to 1.633563e-04.
ElecMinimize: 	Step failed to reduce G after 3 attempts. Quitting step.
ElecMinimize: 	Undoing step.
	Linear fluid (dielectric constant: 78.4, screening length: 5.74355 Bohr) occupying 0.781527 of unit cell:	Completed after 0 iterations at t[s]:   8327.83
ElecMinimize: 	Step failed: resetting search direction.
	FillingsUpdate:  mu: -0.171251800  nElectrons: 402.868895  magneticMoment: [ Abs: 0.02398  Tot: +0.01968 ]
	SubspaceRotationAdjust: set factor to 0.0715
ElecMinimize: Iter:  21  G: -1409.749660969288470  |grad|_K:  2.248e-08  alpha:  1.634e-04
	Linear fluid (dielectric constant: 78.4, screening length: 5.74355 Bohr) occupying 0.781526 of unit cell:	Completed after 0 iterations at t[s]:   8363.36
	Linear fluid (dielectric constant: 78.4, screening length: 5.74355 Bohr) occupying 0.781524 of unit cell:	Completed after 0 iterations at t[s]:   8380.27
	FillingsUpdate:  mu: -0.171251800  nElectrons: 402.868708  magneticMoment: [ Abs: 0.02395  Tot: +0.01964 ]
	SubspaceRotationAdjust: set factor to 0.0823
ElecMinimize: Iter:  22  G: -1409.749661003258097  |grad|_K:  1.452e-08  alpha:  5.412e-01  linmin: -3.446e-06  t[s]:   8403.28
	Linear fluid (dielectric constant: 78.4, screening length: 5.74355 Bohr) occupying 0.781520 of unit cell:	Completed after 0 iterations at t[s]:   8416.27
	Linear fluid (dielectric constant: 78.4, screening length: 5.74355 Bohr) occupying 0.781517 of unit cell:	Completed after 0 iterations at t[s]:   8433.32
	FillingsUpdate:  mu: -0.171251800  nElectrons: 402.868159  magneticMoment: [ Abs: 0.02385  Tot: +0.01956 ]
	SubspaceRotationAdjust: set factor to 0.0948
ElecMinimize: Iter:  23  G: -1409.749661027206002  |grad|_K:  1.643e-08  alpha:  9.155e-01  linmin:  1.083e-06  t[s]:   8456.00
	Linear fluid (dielectric constant: 78.4, screening length: 5.74355 Bohr) occupying 0.781497 of unit cell:	Completed after 2 iterations at t[s]:   8469.34
	Linear fluid (dielectric constant: 78.4, screening length: 5.74355 Bohr) occupying 0.781513 of unit cell:	Completed after 0 iterations at t[s]:   8486.73
	FillingsUpdate:  mu: -0.171251800  nElectrons: 402.867931  magneticMoment: [ Abs: 0.02382  Tot: +0.01953 ]
	SubspaceRotationAdjust: set factor to 0.0622
ElecMinimize: Iter:  24  G: -1409.749661034644078  |grad|_K:  5.672e-08  alpha:  1.473e-01  linmin:  9.142e-04  t[s]:   8509.69
ElecMinimize: 	Bad step direction: g.d > 0.
ElecMinimize: 	Undoing step.
	Linear fluid (dielectric constant: 78.4, screening length: 5.74355 Bohr) occupying 0.781513 of unit cell:	Completed after 0 iterations at t[s]:   8522.68
ElecMinimize: 	Step failed: resetting search direction.
	FillingsUpdate:  mu: -0.171251800  nElectrons: 402.867931  magneticMoment: [ Abs: 0.02382  Tot: +0.01953 ]
	SubspaceRotationAdjust: set factor to 0.0459
ElecMinimize: Iter:  25  G: -1409.749661034649534  |grad|_K:  4.873e-08  alpha:  0.000e+00
ElecMinimize: Converged (|Delta G|<1.000000e-08 for 2 iters).
Setting wave functions to eigenvectors of Hamiltonian

# Ionic positions in lattice coordinates:
ion V   0.083332210555556   0.166667776027779   0.500000008835160 1
ion V   0.333332210555556   0.166667776027779   0.500000008835160 1
ion V   0.583332210555556   0.166667776027779   0.500000008835160 1
ion V   0.833332210555556   0.166667776027779   0.500000008835160 1
ion V   0.083332210555556   0.416667776027779   0.500000008835160 1
ion V   0.333332210555556   0.416667776027779   0.500000008835160 1
ion V   0.583332210555556   0.416667776027779   0.500000008835160 1
ion V   0.833332210555556   0.416667776027779   0.500000008835160 1
ion V   0.083332210555556   0.666667776027779   0.500000008835160 1
ion V   0.333332210555556   0.666667776027779   0.500000008835160 1
ion V   0.583332210555556   0.666667776027779   0.500000008835160 1
ion V   0.833332210555556   0.666667776027779   0.500000008835160 1
ion V   0.083332210555556   0.916667776027779   0.500000008835160 1
ion V   0.333332210555556   0.916667776027779   0.500000008835160 1
ion V   0.583332210555556   0.916667776027779   0.500000008835160 1
ion V   0.833332210555556   0.916667776027779   0.500000008835160 1
ion S  -0.000001122777777   0.000001109361112   0.417533904021914 1
ion S  -0.000001122777777   0.000001109361112   0.582466113648406 1
ion S   0.249998877222223   0.000001109361112   0.417533904021914 1
ion S   0.249998877222223   0.000001109361112   0.582466113648406 1
ion S   0.499998877222223   0.000001109361112   0.417533904021914 1
ion S   0.499998877222223   0.000001109361112   0.582466113648406 1
ion S   0.749998877222223   0.000001109361112   0.417533904021914 1
ion S   0.749998877222223   0.000001109361112   0.582466113648406 1
ion S   0.999998877222223   0.250001109361112   0.417533904021914 1
ion S   0.999998877222223   0.250001109361112   0.582466113648406 1
ion S   0.249998877222223   0.250001109361112   0.417533904021914 1
ion S   0.249998877222223   0.250001109361112   0.582466113648406 1
ion S   0.499998877222223   0.250001109361112   0.417533904021914 1
ion S   0.499998877222223   0.250001109361112   0.582466113648406 1
ion S   0.749998877222223   0.250001109361112   0.417533904021914 1
ion S   0.749998877222223   0.250001109361112   0.582466113648406 1
ion S   0.999998877222223   0.500001109361112   0.417533904021914 1
ion S   0.999998877222223   0.500001109361112   0.582466113648406 1
ion S   0.249998877222223   0.500001109361112   0.417533904021914 1
ion S   0.249998877222223   0.500001109361112   0.582466113648406 1
ion S   0.499998877222223   0.500001109361112   0.417533904021914 1
ion S   0.499998877222223   0.500001109361112   0.582466113648406 1
ion S   0.749998877222223   0.500001109361112   0.417533904021914 1
ion S   0.749998877222223   0.500001109361112   0.582466113648406 1
ion S   0.999998877222223   0.750001109361112   0.417533904021914 1
ion S   0.999998877222223   0.750001109361112   0.582466113648406 1
ion S   0.249998877222223   0.750001109361112   0.417533904021914 1
ion S   0.249998877222223   0.750001109361112   0.582466113648406 1
ion S   0.499998877222223   0.750001109361112   0.417533904021914 1
ion S   0.499998877222223   0.750001109361112   0.582466113648406 1
ion S   0.749998877222223   0.750001109361112   0.417533904021914 1
ion S   0.749998877222223   0.750001109361112   0.582466113648406 1


# Forces in Lattice coordinates:
force V   0.000000000000000   0.000000000000000   0.000000000000000 1
force V  -0.000000000000000  -0.000000000000000  -0.000000000000000 1
force V   0.000000000000000  -0.000000000000000   0.000000000000000 1
force V  -0.000000000000000   0.000000000000000  -0.000000000000000 1
force V  -0.000000000000000   0.000000000000000  -0.000000000000000 1
force V  -0.000000000000000   0.000000000000000  -0.000000000000000 1
force V   0.000000000000000   0.000000000000000  -0.000000000000000 1
force V   0.000000000000000  -0.000000000000000  -0.000000000000000 1
force V   0.000000000000000  -0.000000000000000   0.000000000000000 1
force V   0.000000000000000   0.000000000000000   0.000000000000000 1
force V  -0.000000000000000   0.000000000000000   0.000000000000000 1
force V   0.000000000000000  -0.000000000000000  -0.000000000000000 1
force V  -0.000000000000000  -0.000000000000000  -0.000000000000000 1
force V   0.000000000000000  -0.000000000000000  -0.000000000000000 1
force V  -0.000000000000000   0.000000000000000  -0.000000000000000 1
force V  -0.000000000000000  -0.000000000000000  -0.000000000000000 1
force S   0.000000000000000   0.000000000000000  -0.002613332634234 1
force S  -0.000000000000000   0.000000000000000   0.002613332634122 1
force S  -0.000000000000000  -0.000000000000000  -0.002613332634235 1
force S  -0.000000000000000   0.000000000000000   0.002613332634235 1
force S  -0.000000000000000  -0.000000000000000  -0.002613332634349 1
force S   0.000000000000000   0.000000000000000   0.002613332634348 1
force S  -0.000000000000000  -0.000000000000000  -0.002613332634348 1
force S   0.000000000000000  -0.000000000000000   0.002613332634349 1
force S  -0.000000000000000   0.000000000000000  -0.002613332634235 1
force S   0.000000000000000  -0.000000000000000   0.002613332634349 1
force S   0.000000000000000   0.000000000000000  -0.002613332634348 1
force S  -0.000000000000000  -0.000000000000000   0.002613332634122 1
force S  -0.000000000000000   0.000000000000000  -0.002613332634348 1
force S  -0.000000000000000  -0.000000000000000   0.002613332634349 1
force S  -0.000000000000000  -0.000000000000000  -0.002613332634576 1
force S   0.000000000000000   0.000000000000000   0.002613332634462 1
force S  -0.000000000000000  -0.000000000000000  -0.002613332634235 1
force S  -0.000000000000000   0.000000000000000   0.002613332634235 1
force S  -0.000000000000000   0.000000000000000  -0.002613332634235 1
force S   0.000000000000000   0.000000000000000   0.002613332634121 1
force S  -0.000000000000000   0.000000000000000  -0.002613332634348 1
force S   0.000000000000000   0.000000000000000   0.002613332634123 1
force S   0.000000000000000   0.000000000000000  -0.002613332634348 1
force S   0.000000000000000  -0.000000000000000   0.002613332634235 1
force S  -0.000000000000000  -0.000000000000000  -0.002613332634235 1
force S   0.000000000000000   0.000000000000000   0.002613332634235 1
force S   0.000000000000000   0.000000000000000  -0.002613332634235 1
force S   0.000000000000000   0.000000000000000   0.002613332634235 1
force S  -0.000000000000000   0.000000000000000  -0.002613332634348 1
force S   0.000000000000000  -0.000000000000000   0.002613332634348 1
force S  -0.000000000000000  -0.000000000000000  -0.002613332634348 1
force S   0.000000000000000  -0.000000000000000   0.002613332634122 1

# Energy components:
   A_diel =       -0.5055385575032886
   Eewald =     8155.4196822647063527
       EH =     9484.9383149899585987
     Eloc =   -19392.3070695141141186
      Enl =       79.7728076194293294
      Exc =     -293.0405405136105514
 Exc_core =       69.5498449460234269
       KE =      417.5645120514670907
  MuShift =       -0.0338949708254172
-------------------------------------
     Etot =    -1478.6418816844684443
       TS =        0.0996377300244853
-------------------------------------
        F =    -1478.7415194144930410
      muN =      -68.9918583798435918
-------------------------------------
        G =    -1409.7496610346495345

IonicMinimize: Iter:   2  G: -1409.749661034649534  |grad|_K:  3.626e-05  alpha:  1.000e+00  linmin:  1.000e+00  t[s]:   8558.19
IonicMinimize: Converged (|grad|_K<1.000000e-04).

#--- Lowdin population analysis ---
# oxidation-state V +0.601 +0.601 +0.601 +0.601 +0.601 +0.601 +0.601 +0.601 +0.601 +0.601 +0.601 +0.601 +0.601 +0.601 +0.601 +0.601
# magnetic-moments V +0.001 +0.001 +0.001 +0.001 +0.001 +0.001 +0.001 +0.001 +0.001 +0.001 +0.001 +0.001 +0.001 +0.001 +0.001 +0.001
# oxidation-state S -0.287 -0.287 -0.287 -0.287 -0.287 -0.287 -0.287 -0.287 -0.287 -0.287 -0.287 -0.287 -0.287 -0.287 -0.287 -0.287 -0.287 -0.287 -0.287 -0.287 -0.287 -0.287 -0.287 -0.287 -0.287 -0.287 -0.287 -0.287 -0.287 -0.287 -0.287 -0.287
# magnetic-moments S -0.000 -0.000 -0.000 -0.000 -0.000 -0.000 -0.000 -0.000 -0.000 -0.000 -0.000 -0.000 -0.000 -0.000 -0.000 -0.000 -0.000 -0.000 -0.000 -0.000 -0.000 -0.000 -0.000 -0.000 -0.000 -0.000 -0.000 -0.000 -0.000 -0.000 -0.000 -0.000


Dumping 'NbTe2.fillings' ... done
Dumping 'NbTe2.wfns' ... done
Dumping 'NbTe2.fluidState' ... done
Dumping 'NbTe2.ionpos' ... done
Dumping 'NbTe2.eigenvals' ... done
End date and time: Thu Feb  4 04:04:14 2021  (Duration: 0-2:22:42.90)
Done!
