
*************** JDFTx 1.5.0  ***************

Start date and time: Wed Jul 15 22:21:48 2020
Executable jdftx_gpu with command-line: -i Neutral.in -o Neutral.out
Running on hosts (process indices):  amax (0-5)
Divided in process groups (process indices):  0 (0)  1 (1)  2 (2)  3 (3)  4 (4)  5 (5)
gpuInit: Found compatible cuda device 0 'Tesla K80'
gpuInit: Found compatible cuda device 1 'Tesla K80'
gpuInit: Found compatible cuda device 2 'Tesla K80'
gpuInit: Found compatible cuda device 3 'Tesla K80'
gpuInit: Found compatible cuda device 4 'Tesla K80'
gpuInit: Found compatible cuda device 5 'Tesla K80'
gpuInit: Selected device 0
Resource initialization completed at t[s]:     19.23
Run totals: 6 processes, 24 threads, 6 GPUs


Input parsed successfully to the following command list (including defaults):

basis kpoint-dependent
cache-projectors no
coords-type Lattice
core-overlap-check none
coulomb-interaction Slab 001
coulomb-truncation-embed 0 0 0.5
davidson-band-ratio 1.1
dump End State
dump-name NbTe2.$VAR
elec-cutoff 20 100
elec-eigen-algo Davidson
elec-ex-corr gga-PBE
elec-initial-magnetization 25.000000 no
elec-smearing Gauss 0.0073499
electronic-minimize  \
	dirUpdateScheme      HestenesStiefel \
	linminMethod         DirUpdateRecommended \
	nIterations          500 \
	history              15 \
	knormThreshold       0 \
	energyDiffThreshold  1e-08 \
	nEnergyDiff          2 \
	alphaTstart          1 \
	alphaTmin            1e-10 \
	updateTestStepSize   yes \
	alphaTreduceFactor   0.1 \
	alphaTincreaseFactor 3 \
	nAlphaAdjustMax      3 \
	wolfeEnergy          0.0001 \
	wolfeGradient        0.9 \
	fdTest               no
exchange-regularization WignerSeitzTruncated
fluid LinearPCM 298.000000 1.013250
fluid-anion F- 1 MeanFieldLJ \
	epsBulk 1 \
	pMol 0 \
	epsInf 1 \
	Pvap 0 \
	sigmaBulk 0 \
	Rvdw 2.24877 \
	Res 0 \
	tauNuc 343133
fluid-cation Na+ 1 MeanFieldLJ \
	epsBulk 1 \
	pMol 0 \
	epsInf 1 \
	Pvap 0 \
	sigmaBulk 0 \
	Rvdw 2.19208 \
	Res 0 \
	tauNuc 343133
fluid-ex-corr lda-TF lda-PZ
fluid-gummel-loop 10 1.000000e-05
fluid-minimize  \
	dirUpdateScheme      PolakRibiere \
	linminMethod         DirUpdateRecommended \
	nIterations          400 \
	history              15 \
	knormThreshold       1e-11 \
	energyDiffThreshold  0 \
	nEnergyDiff          2 \
	alphaTstart          1 \
	alphaTmin            1e-10 \
	updateTestStepSize   yes \
	alphaTreduceFactor   0.1 \
	alphaTincreaseFactor 3 \
	nAlphaAdjustMax      6 \
	wolfeEnergy          0.0001 \
	wolfeGradient        0.9 \
	fdTest               no
fluid-solvent H2O 55.338 ScalarEOS \
	epsBulk 78.4 \
	pMol 0.92466 \
	epsInf 1.77 \
	Pvap 1.06736e-10 \
	sigmaBulk 4.62e-05 \
	Rvdw 2.61727 \
	Res 1.42 \
	tauNuc 343133 \
	poleEl 15 7 1
forces-output-coords Positions
initial-state NbTe2.$VAR
ion Mn   0.333333812385853   0.333333672326837   0.326662948576489 0
ion Mn   0.833333812385852   0.333333672326837   0.326662948576489 0
ion Mn   0.333333812385853   0.833333672326837   0.326662948576489 0
ion Mn   0.833333812385852   0.833333672326837   0.326662948576489 0
ion In   0.999999918572925   0.999999869598710   0.484786287994845 0
ion In   0.499999918572925   0.999999869598710   0.484786287994845 0
ion In   0.999999918572925   0.499999869598710   0.484786287994845 0
ion In   0.499999918572925   0.499999869598710   0.484786287994845 0
ion In   0.166666254186865   0.166666359316146   0.652915091306532 0
ion In   0.666666254186865   0.166666359316146   0.652915091306532 0
ion In   0.166666254186865   0.666666359316146   0.652915091306532 0
ion In   0.666666254186865   0.666666359316146   0.652915091306532 0
ion Se   0.000000452743208   0.000000528471041   0.298469141892462 0
ion Se   0.500000452743208   0.000000528471041   0.298469141892462 0
ion Se   0.000000452743208   0.500000528471041   0.298469141892462 0
ion Se   0.500000452743208   0.500000528471041   0.298469141892462 0
ion Se   0.999999706239400   0.999999720826210   0.701500805621476 0
ion Se   0.499999706239400   0.999999720826210   0.701500805621476 0
ion Se   0.999999706239400   0.499999720826210   0.701500805621476 0
ion Se   0.499999706239400   0.499999720826210   0.701500805621476 0
ion Se   0.333333246892032   0.333333273688233   0.429372098732532 0
ion Se   0.833333246892032   0.333333273688233   0.429372098732532 0
ion Se   0.333333246892032   0.833333273688233   0.429372098732532 0
ion Se   0.833333246892032   0.833333273688233   0.429372098732532 0
ion Se   0.166666608979710   0.166666575772823   0.549323683800032 0
ion Se   0.666666608979710   0.166666575772823   0.549323683800032 0
ion Se   0.166666608979710   0.666666575772823   0.549323683800032 0
ion Se   0.666666608979710   0.666666575772823   0.549323683800032 0
ion-species GBRV/$ID_pbe.uspp
ion-width Ecut
ionic-minimize  \
	dirUpdateScheme      L-BFGS \
	linminMethod         DirUpdateRecommended \
	nIterations          0 \
	history              15 \
	knormThreshold       0.0001 \
	energyDiffThreshold  1e-06 \
	nEnergyDiff          2 \
	alphaTstart          1 \
	alphaTmin            1e-10 \
	updateTestStepSize   yes \
	alphaTreduceFactor   0.1 \
	alphaTincreaseFactor 3 \
	nAlphaAdjustMax      3 \
	wolfeEnergy          0.0001 \
	wolfeGradient        0.9 \
	fdTest               no
kpoint   0.000000000000   0.000000000000   0.000000000000  1.00000000000000
kpoint-folding 5 5 1 
latt-move-scale 1 1 1
latt-scale 1 1 1 
lattice Triclinic 15.5003 15.5004 46.8823 90 90 60
lattice-minimize  \
	dirUpdateScheme      L-BFGS \
	linminMethod         DirUpdateRecommended \
	nIterations          0 \
	history              15 \
	knormThreshold       0 \
	energyDiffThreshold  1e-06 \
	nEnergyDiff          2 \
	alphaTstart          1 \
	alphaTmin            1e-10 \
	updateTestStepSize   yes \
	alphaTreduceFactor   0.1 \
	alphaTincreaseFactor 3 \
	nAlphaAdjustMax      3 \
	wolfeEnergy          0.0001 \
	wolfeGradient        0.9 \
	fdTest               no
lcao-params -1 1e-06 0.0073499
pcm-variant CANDLE
spintype z-spin
subspace-rotation-factor 1 yes
symmetries automatic
symmetry-threshold 0.0001



---------- Setting up symmetries ----------

Found 24 point-group symmetries of the bravais lattice
Found 24 space-group symmetries with basis
Applied RMS atom displacement 8.15e-06 bohrs to make symmetries exact.

---------- Initializing the Grid ----------
R = 
[    15.5003    7.75018          0  ]
[          0    13.4237          0  ]
[          0          0    46.8823  ]
unit cell volume = 9754.9
G =
[   0.405358  -0.234033          0  ]
[          0   0.468066          0  ]
[          0          0    0.13402  ]
Minimum fftbox size, Smin = [  72  72  212  ]
Chosen fftbox size, S = [  72  72  216  ]

---------- Initializing tighter grid for wavefunction operations ----------
R = 
[    15.5003    7.75018          0  ]
[          0    13.4237          0  ]
[          0          0    46.8823  ]
unit cell volume = 9754.9
G =
[   0.405358  -0.234033          0  ]
[          0   0.468066          0  ]
[          0          0    0.13402  ]
Minimum fftbox size, Smin = [  64  64  192  ]
Chosen fftbox size, S = [  64  64  192  ]

---------- Exchange Correlation functional ----------
Initalized PBE GGA exchange.
Initalized PBE GGA correlation.

---------- Setting up pseudopotentials ----------
Width of ionic core gaussian charges (only for fluid interactions / plotting) set to 0.397384

Reading pseudopotential file '/home/guoxy/vasp/jdftx-1.5.0/build/pseudopotentials/GBRV/mn_pbe.uspp':
  Title: Mn.  Created by USPP 7.3.6 on 16-6-15
  Reference state energy: -105.136484.  15 valence electrons in orbitals:
    |300>  occupation: 2  eigenvalue: -3.300080
    |310>  occupation: 6  eigenvalue: -2.150696
    |400>  occupation: 1.5  eigenvalue: -0.307943
    |320>  occupation: 5  eigenvalue: -0.391818
    |410>  occupation: 0  eigenvalue: -0.152105
  lMax: 2  lLocal: 3  QijEcut: 6
  6 projectors sampled on a log grid with 585 points:
    l: 0  eig: -3.300083  rCut: 1.45
    l: 0  eig: -0.307946  rCut: 1.45
    l: 1  eig: -2.150696  rCut: 1.45
    l: 1  eig: -0.152108  rCut: 1.45
    l: 2  eig: -0.391817  rCut: 1.7
    l: 2  eig: 0.500000  rCut: 1.7
  Partial core density with radius 0.65
  Transforming core density to a uniform radial grid of dG=0.02 with 1634 points.
  Transforming local potential to a uniform radial grid of dG=0.02 with 1634 points.
  Transforming nonlocal projectors to a uniform radial grid of dG=0.02 with 432 points.
  Transforming density augmentations to a uniform radial grid of dG=0.02 with 1634 points.
  Transforming atomic orbitals to a uniform radial grid of dG=0.02 with 432 points.
  Core radius for overlap checks: 1.70 bohrs.

Reading pseudopotential file '/home/guoxy/vasp/jdftx-1.5.0/build/pseudopotentials/GBRV/in_pbe.uspp':
  Title: In.  Created by USPP 7.3.6 on 31-3-15
  Reference state energy: -66.141337.  13 valence electrons in orbitals:
    |420>  occupation: 10  eigenvalue: -1.145775
    |500>  occupation: 1.5  eigenvalue: -0.705913
    |510>  occupation: 0  eigenvalue: -0.449223
  lMax: 2  lLocal: 3  QijEcut: 5.5
  6 projectors sampled on a log grid with 719 points:
    l: 0  eig: -0.705911  rCut: 1.8
    l: 0  eig: 1.000000  rCut: 1.8
    l: 1  eig: -0.705911  rCut: 2
    l: 1  eig: 1.000000  rCut: 2
    l: 2  eig: -1.145775  rCut: 1.65
    l: 2  eig: 0.750000  rCut: 1.65
  Partial core density with radius 1.4
  Transforming core density to a uniform radial grid of dG=0.02 with 1634 points.
  Transforming local potential to a uniform radial grid of dG=0.02 with 1634 points.
  Transforming nonlocal projectors to a uniform radial grid of dG=0.02 with 432 points.
  Transforming density augmentations to a uniform radial grid of dG=0.02 with 1634 points.
  Transforming atomic orbitals to a uniform radial grid of dG=0.02 with 432 points.
  Core radius for overlap checks: 2.40 bohrs.

Reading pseudopotential file '/home/guoxy/vasp/jdftx-1.5.0/build/pseudopotentials/GBRV/se_pbe.uspp':
  Title: Se.  Created by USPP 7.3.6 on 14-9-2013
  Reference state energy: -21.672887.  6 valence electrons in orbitals:
    |400>  occupation: 2  eigenvalue: -0.635284
    |410>  occupation: 4  eigenvalue: -0.239295
  lMax: 2  lLocal: 3  QijEcut: 5
  6 projectors sampled on a log grid with 625 points:
    l: 0  eig: -0.635278  rCut: 1.5
    l: 0  eig: 0.500000  rCut: 1.5
    l: 1  eig: -0.239295  rCut: 1.5
    l: 1  eig: 0.500000  rCut: 1.5
    l: 2  eig: 0.000000  rCut: 1.8
    l: 2  eig: 1.000000  rCut: 1.8
  Partial core density with radius 1.2
  Transforming core density to a uniform radial grid of dG=0.02 with 1634 points.
  Transforming local potential to a uniform radial grid of dG=0.02 with 1634 points.
  Transforming nonlocal projectors to a uniform radial grid of dG=0.02 with 432 points.
  Transforming density augmentations to a uniform radial grid of dG=0.02 with 1634 points.
  Transforming atomic orbitals to a uniform radial grid of dG=0.02 with 432 points.
  Core radius for overlap checks: 1.80 bohrs.

Initialized 3 species with 28 total atoms.

Folded 1 k-points by 5x5x1 to 25 k-points.

---------- Setting up k-points, bands, fillings ----------
Adding inversion symmetry to k-mesh for non-inversion-symmetric unit cell.
Reduced to 5 k-points under symmetry. 
Computing the number of bands and number of electrons
Calculating initial fillings.
nElectrons: 260.000000   nBands: 188   nStates: 10

----- Setting up reduced wavefunction bases (one per k-point) -----
average nbasis = 41669.240 , ideal nbasis = 41673.697

---------- Setting up coulomb interaction ----------
Fluid mode embedding: using embedded box, but periodic Coulomb kernel.
(Fluid response is responsible for (approximate) separation between periodic images.)
Setting up double-sized grid for truncated Coulomb potentials:
R = 
[    15.5003    7.75018          0  ]
[          0    13.4237          0  ]
[          0          0    93.7647  ]
unit cell volume = 19509.8
G =
[   0.405358  -0.234033          0  ]
[          0   0.468066          0  ]
[          0          0  0.0670102  ]
Chosen fftbox size, S = [  72  72  432  ]
Integer grid location selected as the embedding center:
   Grid: [  0  0  108  ]
   Lattice: [  0  0  0.5  ]
   Cartesian: [  0  0  23.4412  ]
Constructing Wigner-Seitz cell: 8 faces (6 quadrilaterals, 2 hexagons)
Range-separation parameter for embedded mesh potentials due to point charges: 0.587743 bohrs.

Initializing van der Waals corrections
	NOTE: vdW corrections apply only for interactions with fluid.
	Mn:  C6:  187.33 Eh-a0^6  R0: 2.952 a0
	In:  C6:  647.33 Eh-a0^6  R0: 3.160 a0
	Se:  C6:  219.24 Eh-a0^6  R0: 3.347 a0

---------- Setting up ewald sum ----------
Optimum gaussian width for ewald sums = 6.163131 bohr.
Real space sum over 845 unit cells with max indices [  6  6  2  ]
Reciprocal space sum over 5929 terms with max indices [  5  5  24  ]

---------- Allocating electronic variables ----------
Initializing wave functions:  linear combination of atomic orbitals
Mn pseudo-atom occupations:   s ( 2 0 )  p ( 6 0 )  d ( 7 )
In pseudo-atom occupations:   s ( 2 )  p ( 1 )  d ( 10 )
Se pseudo-atom occupations:   s ( 2 )  p ( 4 )
	FillingsUpdate:  mu: +23.092003343  nElectrons: 260.000000  magneticMoment: [ Abs: 2.48770  Tot: +2.33562 ]
LCAOMinimize: Iter:   0  F: +769.0476867987385958  |grad|_K:  1.236e-02  alpha:  1.000e+00
LCAOMinimize: 	Wrong curvature in test step, increasing alphaT to 3.000000e+00.
	FillingsUpdate:  mu: +11.150333771  nElectrons: 260.000000  magneticMoment: [ Abs: 0.17031  Tot: -0.00001 ]
LCAOMinimize: Iter:   1  F: +109.4131198425168634  |grad|_K:  2.929e-02  alpha: -4.510e-02  linmin:  6.930e-03  cgtest: -5.331e-01  t[s]:     53.56
LCAOMinimize: 	Bad step direction: g.d > 0.
LCAOMinimize: 	Undoing step.
LCAOMinimize: 	Step failed: resetting search direction.
	FillingsUpdate:  mu: +11.150333771  nElectrons: 260.000000  magneticMoment: [ Abs: 0.17031  Tot: -0.00001 ]
LCAOMinimize: Iter:   2  F: +109.4131198425168634  |grad|_K:  2.929e-02  alpha:  0.000e+00
	FillingsUpdate:  mu: +11.071759059  nElectrons: 260.000000  magneticMoment: [ Abs: 0.17156  Tot: +0.00269 ]
LCAOMinimize: Iter:   3  F: +33.4273316190003840  |grad|_K:  3.201e-02  alpha:  1.580e-01  linmin: -1.711e-02  cgtest:  6.880e-01  t[s]:     71.77
LCAOMinimize: 	Wrong curvature in test step, increasing alphaT to 4.740752e-01.
	FillingsUpdate:  mu: +9.297003434  nElectrons: 260.000000  magneticMoment: [ Abs: 0.17430  Tot: +0.00707 ]
LCAOMinimize: Iter:   4  F: -283.3305743336316596  |grad|_K:  7.736e-03  alpha: -3.168e-02  linmin: -6.123e-03  cgtest:  1.649e+00  t[s]:     81.43
LCAOMinimize: Encountered beta<0, resetting CG.
	FillingsUpdate:  mu: +9.294470254  nElectrons: 260.000000  magneticMoment: [ Abs: 0.17402  Tot: +0.00671 ]
LCAOMinimize: Iter:   5  F: -283.5510939242782342  |grad|_K:  8.006e-03  alpha:  9.923e-03  linmin: -6.615e-03  cgtest:  9.546e-01  t[s]:     91.99
LCAOMinimize: 	Wrong curvature in test step, increasing alphaT to 2.976905e-02.
	FillingsUpdate:  mu: +9.291524925  nElectrons: 260.000000  magneticMoment: [ Abs: 0.17373  Tot: +0.00631 ]
LCAOMinimize: Iter:   6  F: -283.8115620917718047  |grad|_K:  8.437e-03  alpha: -8.641e-02  linmin: -7.225e-03  cgtest:  9.367e-01  t[s]:    104.28
	FillingsUpdate:  mu: +8.886805042  nElectrons: 260.000000  magneticMoment: [ Abs: 0.17556  Tot: +0.00856 ]
LCAOMinimize: Iter:   7  F: -316.8659912807439127  |grad|_K:  2.533e-01  alpha:  1.330e-02  linmin: -6.211e-02  cgtest:  3.137e-02  t[s]:    115.20
LCAOMinimize: 	Step increased F by 1.089769e+03, reducing alpha to 6.629150e-04.
LCAOMinimize: 	Step increased F by 1.086989e+03, reducing alpha to 6.629150e-05.
	FillingsUpdate:  mu: +6.437616023  nElectrons: 260.000000  magneticMoment: [ Abs: 0.17326  Tot: -0.00094 ]
LCAOMinimize: Iter:   8  F: -511.8251942939684795  |grad|_K:  9.000e-02  alpha:  6.629e-05  linmin: -3.835e-02  cgtest:  1.644e+00  t[s]:    149.17
LCAOMinimize: Encountered beta<0, resetting CG.
LCAOMinimize: 	Wrong curvature in test step, increasing alphaT to 1.988745e-04.
	FillingsUpdate:  mu: +6.434892375  nElectrons: 260.000000  magneticMoment: [ Abs: 0.17329  Tot: -0.00100 ]
LCAOMinimize: Iter:   9  F: -512.0174917530802077  |grad|_K:  9.019e-02  alpha: -1.309e-02  linmin: -2.142e-02  cgtest:  9.972e-01  t[s]:    165.40
LCAOMinimize: 	Step increased F by 1.633321e+02, reducing alpha to 3.472514e-02.
	FillingsUpdate:  mu: +5.312438519  nElectrons: 260.000000  magneticMoment: [ Abs: 0.17280  Tot: -0.00164 ]
LCAOMinimize: Iter:  10  F: -581.1537194210389998  |grad|_K:  8.938e-03  alpha:  3.473e-02  linmin: -6.912e-03  cgtest:  7.208e+00  t[s]:    199.50
LCAOMinimize: Encountered beta<0, resetting CG.
LCAOMinimize: 	Wrong curvature in test step, increasing alphaT to 1.041754e-01.
	FillingsUpdate:  mu: +2.514504303  nElectrons: 260.000000  magneticMoment: [ Abs: 0.17432  Tot: +0.00297 ]
LCAOMinimize: Iter:  11  F: -701.4911603033719985  |grad|_K:  6.518e-02  alpha: -1.442e-04  linmin: -4.557e-02  cgtest:  1.256e-01  t[s]:    219.84
LCAOMinimize: 	Step increased F by 1.474400e+03, reducing alpha to 4.962689e-02.
LCAOMinimize: 	Step increased F by 1.474353e+03, reducing alpha to 4.962689e-03.
LCAOMinimize: 	Step increased F by 3.449906e+02, reducing alpha to 4.962689e-04.
LCAOMinimize: 	Step failed to reduce F after 3 attempts. Quitting step.
LCAOMinimize: 	Undoing step.
LCAOMinimize: 	Step failed: resetting search direction.
	FillingsUpdate:  mu: +0.054257917  nElectrons: 260.000000  magneticMoment: [ Abs: 0.95696  Tot: +0.79866 ]
LCAOMinimize: Iter:  12  F: -383.5869076407375360  |grad|_K:  1.711e-02  alpha:  4.963e-04
	FillingsUpdate:  mu: -0.630781391  nElectrons: 260.000000  magneticMoment: [ Abs: 0.29062  Tot: +0.01923 ]
LCAOMinimize: Iter:  13  F: -603.1850920866698971  |grad|_K:  7.122e-02  alpha:  9.100e-02  linmin: -5.866e-02  cgtest:  1.377e-01  t[s]:    307.48
LCAOMinimize: 	Step increased F by 6.365080e+02, reducing alpha to 3.814865e-03.
LCAOMinimize: 	Step increased F by 1.074904e+02, reducing alpha to 3.814865e-04.
	FillingsUpdate:  mu: -1.647321797  nElectrons: 260.000000  magneticMoment: [ Abs: 0.43543  Tot: +0.13432 ]
LCAOMinimize: Iter:  14  F: -696.1459821703311945  |grad|_K:  1.424e-01  alpha:  3.815e-04  linmin: -1.259e-01  cgtest:  4.203e-01  t[s]:    354.70
	FillingsUpdate:  mu: -0.117286606  nElectrons: 260.000000  magneticMoment: [ Abs: 0.54505  Tot: +0.37782 ]
LCAOMinimize: Iter:  15  F: -821.1223596151201036  |grad|_K:  1.133e-01  alpha:  2.879e-04  linmin:  1.632e-01  cgtest:  1.073e-01  t[s]:    377.20
LCAOMinimize: 	Bad step direction: g.d > 0.
LCAOMinimize: 	Undoing step.
LCAOMinimize: 	Step failed: resetting search direction.
	FillingsUpdate:  mu: -0.117286606  nElectrons: 260.000000  magneticMoment: [ Abs: 0.54505  Tot: +0.37782 ]
LCAOMinimize: Iter:  16  F: -821.1223596151201036  |grad|_K:  1.133e-01  alpha:  0.000e+00
LCAOMinimize: 	Predicted alpha/alphaT>3.000000, increasing alphaT to 8.638101e-04.
LCAOMinimize: 	Predicted alpha/alphaT>3.000000, increasing alphaT to 2.591430e-03.
	FillingsUpdate:  mu: -0.801747754  nElectrons: 260.000000  magneticMoment: [ Abs: 0.25989  Tot: +0.07554 ]
LCAOMinimize: Iter:  17  F: -835.3540580529792123  |grad|_K:  4.344e-02  alpha:  5.677e-03  linmin: -4.454e-02  cgtest:  1.894e+00  t[s]:    433.74
LCAOMinimize: Encountered beta<0, resetting CG.
	FillingsUpdate:  mu: -0.875984581  nElectrons: 260.000000  magneticMoment: [ Abs: 0.19740  Tot: +0.00776 ]
LCAOMinimize: Iter:  18  F: -837.1175788586479030  |grad|_K:  2.046e-02  alpha:  5.381e-03  linmin: -3.196e-02  cgtest:  2.042e+00  t[s]:    456.45
LCAOMinimize: Encountered beta<0, resetting CG.
LCAOMinimize: 	Predicted alpha/alphaT>3.000000, increasing alphaT to 1.614344e-02.
LCAOMinimize: 	Wrong curvature in test step, increasing alphaT to 4.843031e-02.
	FillingsUpdate:  mu: -0.911100403  nElectrons: 260.000000  magneticMoment: [ Abs: 0.23454  Tot: +0.11327 ]
LCAOMinimize: Iter:  19  F: -839.9188822441003595  |grad|_K:  3.983e-02  alpha: -5.047e-02  linmin: -2.777e-02  cgtest:  4.977e-01  t[s]:    485.75
LCAOMinimize: 	Step increased F by 1.599037e+03, reducing alpha to 2.902619e-02.
	FillingsUpdate:  mu: -0.320421593  nElectrons: 260.000000  magneticMoment: [ Abs: 0.04957  Tot: +0.01254 ]
LCAOMinimize: Iter:  20  F: -863.5156658004441397  |grad|_K:  5.166e-02  alpha:  2.903e-02  linmin: -1.461e-02  cgtest: -3.500e-01  t[s]:    520.35
	FillingsUpdate:  mu: -0.305931892  nElectrons: 260.000000  magneticMoment: [ Abs: 0.05360  Tot: +0.00446 ]
LCAOMinimize: Iter:  21  F: -865.7387781606917088  |grad|_K:  5.442e-02  alpha:  7.002e-04  linmin: -2.689e-02  cgtest:  9.436e-01  t[s]:    542.40
LCAOMinimize: 	Wrong curvature in test step, increasing alphaT to 2.100669e-03.
	FillingsUpdate:  mu: -0.310005337  nElectrons: 260.000000  magneticMoment: [ Abs: 0.05618  Tot: +0.00397 ]
LCAOMinimize: Iter:  22  F: -866.7898832827440856  |grad|_K:  5.506e-02  alpha: -1.771e-02  linmin: -6.981e-02  cgtest:  9.841e-01  t[s]:    564.25
LCAOMinimize: 	Step increased F by 1.988135e+01, reducing alpha to 4.164081e-02.
	FillingsUpdate:  mu: -0.023802320  nElectrons: 260.000000  magneticMoment: [ Abs: 0.13133  Tot: +0.12544 ]
LCAOMinimize: Iter:  23  F: -990.5444101989291994  |grad|_K:  4.402e-02  alpha:  4.164e-02  linmin: -1.026e-01  cgtest:  5.992e-01  t[s]:    603.00
	FillingsUpdate:  mu: -0.565684624  nElectrons: 260.000000  magneticMoment: [ Abs: 0.14590  Tot: +0.14114 ]
LCAOMinimize: Iter:  24  F: -998.6840881920869606  |grad|_K:  4.348e-02  alpha:  1.673e-02  linmin: -5.007e-02  cgtest:  3.597e-01  t[s]:    623.65
LCAOMinimize: 	Wrong curvature in test step, increasing alphaT to 5.019774e-02.
	FillingsUpdate:  mu: -0.602945080  nElectrons: 260.000000  magneticMoment: [ Abs: 0.33759  Tot: +0.25022 ]
LCAOMinimize: Iter:  25  F: -1019.6673118470289410  |grad|_K:  4.169e-02  alpha: -1.758e-02  linmin: -9.860e-02  cgtest:  9.457e-01  t[s]:    644.42
LCAOMinimize: 	Step increased F by 8.722016e+01, reducing alpha to 1.541220e-02.
	FillingsUpdate:  mu: -0.261266309  nElectrons: 260.000000  magneticMoment: [ Abs: 0.38497  Tot: +0.28860 ]
LCAOMinimize: Iter:  26  F: -1023.4964807226514267  |grad|_K:  4.186e-02  alpha:  1.541e-02  linmin:  1.585e-02  cgtest: -2.356e-01  t[s]:    681.61
LCAOMinimize: 	Wrong curvature in test step, increasing alphaT to 4.623659e-02.
	FillingsUpdate:  mu: -0.031934580  nElectrons: 260.000000  magneticMoment: [ Abs: 0.76896  Tot: +0.73616 ]
LCAOMinimize: Iter:  27  F: -1033.0667815001718282  |grad|_K:  1.068e-02  alpha: -8.272e-02  linmin: -2.162e-01  cgtest:  1.748e-01  t[s]:    712.84
	FillingsUpdate:  mu: +0.110573298  nElectrons: 260.000000  magneticMoment: [ Abs: 0.27410  Tot: +0.21778 ]
LCAOMinimize: Iter:  28  F: -1035.9227331585261709  |grad|_K:  7.929e-03  alpha:  9.690e-02  linmin: -1.114e-01  cgtest:  5.001e-01  t[s]:    735.24
	FillingsUpdate:  mu: +0.031266498  nElectrons: 260.000000  magneticMoment: [ Abs: 0.22209  Tot: +0.12889 ]
LCAOMinimize: Iter:  29  F: -1037.3840123799723187  |grad|_K:  6.815e-03  alpha:  1.094e-01  linmin: -2.924e-02  cgtest:  6.070e-02  t[s]:    756.78
	FillingsUpdate:  mu: -0.103366780  nElectrons: 260.000000  magneticMoment: [ Abs: 0.18172  Tot: +0.09395 ]
LCAOMinimize: Iter:  30  F: -1037.5981301968913613  |grad|_K:  5.584e-03  alpha:  2.322e-02  linmin:  5.643e-03  cgtest: -1.713e-01  t[s]:    780.26
LCAOMinimize: None of the convergence criteria satisfied after 30 iterations.
----- createFluidSolver() ----- (Fluid-side solver setup)
   Initializing fluid molecule 'H2O'
     Initializing site 'O'
       Electron density: proportional to exp(-r/0.36935)*erfc((r-0.51523)/0.36823) with norm 6.826
       Charge density: gaussian nuclear width 0.478731 with net site charge 0.826
       Polarizability: cuspless exponential with width 0.32 and norm 3.73
       Hard sphere radius: 2.57003 bohrs
       Positions in reference frame:
         [ +0.000000 +0.000000 +0.000000 ]
     Initializing site 'H'
       Electron density: proportional to exp(-r/0.34641)*erfc((r-0)/0.390882) with norm 0.587
       Charge density: gaussian nuclear width 0.377945 with net site charge -0.413
       Polarizability: cuspless exponential with width 0.39 and norm 3.3
       Positions in reference frame:
         [ +0.000000 -1.441945 +1.122523 ]
         [ +0.000000 +1.441945 +1.122523 ]
     Net charge: 0   dipole magnitude: 0.927204
     Initializing spherical shell mfKernel with radius 2.61727 Bohr
     deltaS corrections:
       site 'O': -7.54299
       site 'H': -6.83917
   Initializing fluid molecule 'Na+'
     Initializing site 'Na'
       Electron density: proportional to exp(-r/0.19682)*erfc((r-0.71491)/0.41314) with norm 8.1383
       Charge density: gaussian nuclear width 0.365347 with net site charge -1
       Hard sphere radius: 1.86327 bohrs
       Positions in reference frame:
         [ +0.000000 +0.000000 +0.000000 ]
     Net charge: -1   dipole magnitude: 0
     Initializing gaussian mfKernel with width: 1.55004 Bohr
     deltaS corrections:
       site 'Na': -22.3555
   Initializing fluid molecule 'F-'
     Initializing site 'F'
       Electron density: proportional to exp(-r/0.38886)*erfc((r-0)/0.438782) with norm 8
       Charge density: gaussian nuclear width 0.374796 with net site charge 1
       Hard sphere radius: 2.39995 bohrs
       Positions in reference frame:
         [ +0.000000 +0.000000 +0.000000 ]
     Net charge: 1   dipole magnitude: 0
     Initializing gaussian mfKernel with width: 1.59012 Bohr
     deltaS corrections:
       site 'F': -9.04335

Correction to mu due to finite nuclear width = -0.0132227
   Cavity determined by nc: 0.00142 and sigma: 0.707107
   Nonlocal vdW cavity from gaussian model electron density with norm = 8 and sigma = 0.993594 bohr
   Charge asymmetry in cavity with sensitivity pCavity = 36.5 e-bohr/Eh
   Electrostatic cavity expanded by eta = 1.46 bohrs
   Weighted density cavitation model constrained by Nbulk: 0.0049383 bohr^-3, Pvap: 3.14029 kPa, Rvdw: 2.61727 bohr and sigmaBulk: 4.62e-05 Eh/bohr^2 at T: 298 K.
   Weighted density dispersion model using vdW pair potentials with single solvent site with sqrtC6eff: 0.77 SI.


---- Citations for features of the code used in this run ----

   Software package:
      R. Sundararaman, K. Letchworth-Weaver, K.A. Schwarz, D. Gunceler, Y. Ozhabes and T.A. Arias, 'JDFTx: software for joint density-functional theory', SoftwareX 6, 278 (2017)

   gga-PBE exchange-correlation functional:
      J.P. Perdew, K. Burke and M. Ernzerhof, Phys. Rev. Lett. 77, 3865 (1996)

   Pseudopotentials:
      KF Garrity, JW Bennett, KM Rabe and D Vanderbilt, Comput. Mater. Sci. 81, 446 (2014)

   Truncated Coulomb potentials:
      R. Sundararaman and T.A. Arias, Phys. Rev. B 87, 165122 (2013)

   Van der Waals correction pair-potentials:
      S. Grimme, J. Comput. Chem. 27, 1787 (2006)

   Charge-asymmetric nonlocally-determined local-electric (CANDLE) solvation model:
      R. Sundararaman and W.A. Goddard III, J. Chem. Phys. 142, 064107 (2015)

   Total energy minimization with Auxiliary Hamiltonian:
      C. Freysoldt, S. Boeck, and J. Neugebauer, Phys. Rev. B 79, 241103(R) (2009)

This list may not be complete. Please suggest additional citations or
report any other bugs at https://github.com/shankar1729/jdftx/issues

Initialization completed successfully at t[s]:    783.43

Fluid solver invoked on fresh (partially random / LCAO) wavefunctions
Running a vacuum solve first:

-------- Initial electronic minimization -----------
	FillingsUpdate:  mu: -0.103359494  nElectrons: 260.000000  magneticMoment: [ Abs: 0.18172  Tot: +0.09395 ]
ElecMinimize: Iter:   0  F: -1037.598130196894544  |grad|_K:  2.880e-04  alpha:  1.000e+00
	FillingsUpdate:  mu: +0.018523418  nElectrons: 260.000000  magneticMoment: [ Abs: 0.16655  Tot: +0.07276 ]
	SubspaceRotationAdjust: set factor to 0.593
ElecMinimize: Iter:   1  F: -1037.744408975280976  |grad|_K:  2.818e-04  alpha:  2.903e-02  linmin:  6.708e-06  cgtest: -2.286e-01  t[s]:    851.05
ElecMinimize: 	Predicted alpha/alphaT>3.000000, increasing alphaT to 8.708947e-02.
	FillingsUpdate:  mu: -0.046468928  nElectrons: 260.000000  magneticMoment: [ Abs: 0.11820  Tot: +0.06152 ]
	SubspaceRotationAdjust: set factor to 0.322
ElecMinimize: Iter:   2  F: -1038.264817061985696  |grad|_K:  1.398e-04  alpha:  9.112e-02  linmin:  4.579e-06  cgtest: -8.048e-02  t[s]:    909.80
	FillingsUpdate:  mu: -0.016580073  nElectrons: 260.000000  magneticMoment: [ Abs: 0.09439  Tot: +0.03809 ]
	SubspaceRotationAdjust: set factor to 0.246
ElecMinimize: Iter:   3  F: -1038.584429674687954  |grad|_K:  8.805e-05  alpha:  2.160e-01  linmin: -4.648e-06  cgtest:  8.025e-02  t[s]:    957.16
	FillingsUpdate:  mu: -0.101773277  nElectrons: 260.000000  magneticMoment: [ Abs: 0.08124  Tot: +0.03738 ]
	SubspaceRotationAdjust: set factor to 0.137
ElecMinimize: Iter:   4  F: -1038.685788952338498  |grad|_K:  5.801e-05  alpha:  1.400e-01  linmin: -6.133e-07  cgtest:  9.105e-02  t[s]:   1003.12
	FillingsUpdate:  mu: -0.041839438  nElectrons: 260.000000  magneticMoment: [ Abs: 0.07101  Tot: +0.02829 ]
	SubspaceRotationAdjust: set factor to 0.103
	SubspaceRotationAdjust: resetting CG because factor has changed by 0.102904
ElecMinimize: 	State modified externally: resetting search direction.
ElecMinimize: Iter:   5  F: -1038.778959009078335  |grad|_K:  3.942e-05  alpha:  3.393e-01
	FillingsUpdate:  mu: -0.090849806  nElectrons: 260.000000  magneticMoment: [ Abs: 0.06910  Tot: +0.02901 ]
	SubspaceRotationAdjust: set factor to 0.198
ElecMinimize: Iter:   6  F: -1038.808812080826101  |grad|_K:  2.779e-05  alpha:  2.443e-01  linmin:  8.321e-08  cgtest: -1.751e-03  t[s]:   1120.59
	FillingsUpdate:  mu: -0.047509830  nElectrons: 260.000000  magneticMoment: [ Abs: 0.06498  Tot: +0.02784 ]
	SubspaceRotationAdjust: set factor to 0.197
ElecMinimize: Iter:   7  F: -1038.843567583635149  |grad|_K:  1.881e-05  alpha:  5.709e-01  linmin: -8.920e-07  cgtest:  1.660e-02  t[s]:   1165.16
	FillingsUpdate:  mu: -0.073608949  nElectrons: 260.000000  magneticMoment: [ Abs: 0.05929  Tot: +0.02701 ]
	SubspaceRotationAdjust: set factor to 0.157
ElecMinimize: Iter:   8  F: -1038.858455174092342  |grad|_K:  1.744e-05  alpha:  5.307e-01  linmin:  4.119e-07  cgtest: -2.223e-03  t[s]:   1211.01
	FillingsUpdate:  mu: -0.041854270  nElectrons: 260.000000  magneticMoment: [ Abs: 0.05591  Tot: +0.02516 ]
	SubspaceRotationAdjust: set factor to 0.106
ElecMinimize: Iter:   9  F: -1038.864963013076931  |grad|_K:  1.481e-05  alpha:  2.844e-01  linmin:  3.667e-07  cgtest:  4.415e-02  t[s]:   1255.39
	FillingsUpdate:  mu: -0.059494488  nElectrons: 260.000000  magneticMoment: [ Abs: 0.05134  Tot: +0.02437 ]
	SubspaceRotationAdjust: set factor to 0.125
ElecMinimize: Iter:  10  F: -1038.870736337343942  |grad|_K:  1.094e-05  alpha:  3.400e-01  linmin:  1.200e-07  cgtest: -2.147e-02  t[s]:   1306.54
	FillingsUpdate:  mu: -0.059613235  nElectrons: 260.000000  magneticMoment: [ Abs: 0.04790  Tot: +0.02391 ]
	SubspaceRotationAdjust: set factor to 0.14
ElecMinimize: Iter:  11  F: -1038.874008051686133  |grad|_K:  7.519e-06  alpha:  3.505e-01  linmin:  4.648e-08  cgtest:  4.228e-02  t[s]:   1359.54
	FillingsUpdate:  mu: -0.057929584  nElectrons: 260.000000  magneticMoment: [ Abs: 0.04331  Tot: +0.02370 ]
	SubspaceRotationAdjust: set factor to 0.167
ElecMinimize: Iter:  12  F: -1038.877221221944637  |grad|_K:  5.675e-06  alpha:  7.269e-01  linmin:  1.094e-07  cgtest:  2.160e-02  t[s]:   1408.88
	FillingsUpdate:  mu: -0.057706525  nElectrons: 260.000000  magneticMoment: [ Abs: 0.04138  Tot: +0.02405 ]
	SubspaceRotationAdjust: set factor to 0.184
ElecMinimize: Iter:  13  F: -1038.878321250759427  |grad|_K:  5.987e-06  alpha:  4.370e-01  linmin: -2.020e-09  cgtest:  2.770e-02  t[s]:   1451.34
	FillingsUpdate:  mu: -0.055901907  nElectrons: 260.000000  magneticMoment: [ Abs: 0.03927  Tot: +0.02513 ]
	SubspaceRotationAdjust: set factor to 0.215
ElecMinimize: Iter:  14  F: -1038.879503753360268  |grad|_K:  4.350e-06  alpha:  4.200e-01  linmin: -2.345e-08  cgtest:  6.668e-03  t[s]:   1496.67
	FillingsUpdate:  mu: -0.064266077  nElectrons: 260.000000  magneticMoment: [ Abs: 0.03880  Tot: +0.02656 ]
	SubspaceRotationAdjust: set factor to 0.171
ElecMinimize: Iter:  15  F: -1038.879992399892899  |grad|_K:  4.458e-06  alpha:  3.261e-01  linmin:  8.597e-08  cgtest: -2.759e-02  t[s]:   1541.92
	FillingsUpdate:  mu: -0.057516676  nElectrons: 260.000000  magneticMoment: [ Abs: 0.03904  Tot: +0.02895 ]
	SubspaceRotationAdjust: set factor to 0.135
ElecMinimize: Iter:  16  F: -1038.880441184745905  |grad|_K:  3.307e-06  alpha:  2.896e-01  linmin: -5.930e-08  cgtest:  5.730e-02  t[s]:   1588.38
	FillingsUpdate:  mu: -0.059447700  nElectrons: 260.000000  magneticMoment: [ Abs: 0.04005  Tot: +0.03136 ]
	SubspaceRotationAdjust: set factor to 0.143
ElecMinimize: Iter:  17  F: -1038.880688622978823  |grad|_K:  2.361e-06  alpha:  2.866e-01  linmin:  3.357e-08  cgtest: -2.486e-02  t[s]:   1632.91
	FillingsUpdate:  mu: -0.059241310  nElectrons: 260.000000  magneticMoment: [ Abs: 0.04218  Tot: +0.03481 ]
	SubspaceRotationAdjust: set factor to 0.152
ElecMinimize: Iter:  18  F: -1038.880874013302673  |grad|_K:  1.546e-06  alpha:  4.247e-01  linmin:  2.115e-08  cgtest:  1.949e-02  t[s]:   1678.54
	FillingsUpdate:  mu: -0.058214449  nElectrons: 260.000000  magneticMoment: [ Abs: 0.04504  Tot: +0.03839 ]
	SubspaceRotationAdjust: set factor to 0.155
ElecMinimize: Iter:  19  F: -1038.880957223703717  |grad|_K:  1.426e-06  alpha:  4.441e-01  linmin: -1.374e-08  cgtest:  1.988e-03  t[s]:   1726.62
	FillingsUpdate:  mu: -0.059980215  nElectrons: 260.000000  magneticMoment: [ Abs: 0.04803  Tot: +0.04181 ]
	SubspaceRotationAdjust: set factor to 0.134
ElecMinimize: Iter:  20  F: -1038.881000711445722  |grad|_K:  9.229e-07  alpha:  2.716e-01  linmin: -9.986e-09  cgtest:  9.993e-04  t[s]:   1771.84
	FillingsUpdate:  mu: -0.058552573  nElectrons: 260.000000  magneticMoment: [ Abs: 0.05183  Tot: +0.04589 ]
	SubspaceRotationAdjust: set factor to 0.101
ElecMinimize: Iter:  21  F: -1038.881024295598763  |grad|_K:  7.397e-07  alpha:  3.523e-01  linmin: -5.030e-08  cgtest:  3.238e-02  t[s]:   1818.03
	FillingsUpdate:  mu: -0.059218879  nElectrons: 260.000000  magneticMoment: [ Abs: 0.05690  Tot: +0.05115 ]
	SubspaceRotationAdjust: set factor to 0.109
ElecMinimize: Iter:  22  F: -1038.881041272399671  |grad|_K:  5.580e-07  alpha:  3.945e-01  linmin:  2.217e-08  cgtest: -1.759e-02  t[s]:   1867.46
	FillingsUpdate:  mu: -0.059513693  nElectrons: 260.000000  magneticMoment: [ Abs: 0.06122  Tot: +0.05552 ]
	SubspaceRotationAdjust: set factor to 0.117
ElecMinimize: Iter:  23  F: -1038.881049490981468  |grad|_K:  4.206e-07  alpha:  3.364e-01  linmin:  5.169e-09  cgtest:  7.590e-03  t[s]:   1914.05
	FillingsUpdate:  mu: -0.059081898  nElectrons: 260.000000  magneticMoment: [ Abs: 0.06631  Tot: +0.06055 ]
	SubspaceRotationAdjust: set factor to 0.121
ElecMinimize: Iter:  24  F: -1038.881054705389488  |grad|_K:  3.333e-07  alpha:  3.754e-01  linmin: -1.791e-08  cgtest:  2.799e-03  t[s]:   1958.73
	FillingsUpdate:  mu: -0.059166316  nElectrons: 260.000000  magneticMoment: [ Abs: 0.07410  Tot: +0.06813 ]
	SubspaceRotationAdjust: set factor to 0.144
ElecMinimize: Iter:  25  F: -1038.881058940674848  |grad|_K:  2.797e-07  alpha:  4.854e-01  linmin:  4.534e-09  cgtest:  4.903e-03  t[s]:   2006.33
	FillingsUpdate:  mu: -0.059183684  nElectrons: 260.000000  magneticMoment: [ Abs: 0.08327  Tot: +0.07696 ]
	SubspaceRotationAdjust: set factor to 0.166
ElecMinimize: Iter:  26  F: -1038.881061738642074  |grad|_K:  2.795e-07  alpha:  4.556e-01  linmin:  1.173e-08  cgtest:  2.768e-02  t[s]:   2055.00
	FillingsUpdate:  mu: -0.059415138  nElectrons: 260.000000  magneticMoment: [ Abs: 0.10043  Tot: +0.09338 ]
	SubspaceRotationAdjust: set factor to 0.192
ElecMinimize: Iter:  27  F: -1038.881065074490380  |grad|_K:  3.345e-07  alpha:  5.440e-01  linmin:  5.961e-08  cgtest:  2.788e-02  t[s]:   2100.32
	FillingsUpdate:  mu: -0.058798515  nElectrons: 260.000000  magneticMoment: [ Abs: 0.13019  Tot: +0.12176 ]
	SubspaceRotationAdjust: set factor to 0.178
ElecMinimize: Iter:  28  F: -1038.881069361996651  |grad|_K:  4.446e-07  alpha:  4.884e-01  linmin: -1.259e-07  cgtest: -6.252e-03  t[s]:   2147.81
	FillingsUpdate:  mu: -0.060119401  nElectrons: 260.000000  magneticMoment: [ Abs: 0.28394  Tot: +0.26615 ]
	SubspaceRotationAdjust: set factor to 0.169
ElecMinimize: Iter:  29  F: -1038.881086601931202  |grad|_K:  1.187e-06  alpha:  1.134e+00  linmin:  6.184e-06  cgtest: -8.225e-03  t[s]:   2193.73
	FillingsUpdate:  mu: -0.060119346  nElectrons: 260.000000  magneticMoment: [ Abs: 0.28397  Tot: +0.26618 ]
	SubspaceRotationAdjust: set factor to 0.213
ElecMinimize: Iter:  30  F: -1038.881086608655551  |grad|_K:  1.175e-06  alpha:  3.207e-05  linmin: -1.102e-04  cgtest:  9.896e-01  t[s]:   2239.54
ElecMinimize: Encountered beta<0, resetting CG.
ElecMinimize: 	Wrong curvature in test step, increasing alphaT to 9.619669e-05.
	FillingsUpdate:  mu: -0.060119037  nElectrons: 260.000000  magneticMoment: [ Abs: 0.28397  Tot: +0.26618 ]
	SubspaceRotationAdjust: set factor to 0.235
ElecMinimize: Iter:  31  F: -1038.881086615620006  |grad|_K:  1.234e-06  alpha: -1.066e-02  linmin: -7.524e-04  cgtest:  1.050e+00  t[s]:   2284.18
ElecMinimize: Encountered beta<0, resetting CG.
ElecMinimize: Converged (|Delta F|<1.000000e-08 for 2 iters).
Setting wave functions to eigenvectors of Hamiltonian
Vacuum energy after initial minimize, F = -1038.881086615620006

	Linear fluid (dielectric constant: 78.4, screening length: 5.74355 Bohr) occupying 0.683460 of unit cell:	Completed after 26 iterations at t[s]:   2306.31

-------- Electronic minimization -----------
	Linear fluid (dielectric constant: 78.4, screening length: 5.74355 Bohr) occupying 0.683460 of unit cell:	Completed after 0 iterations at t[s]:   2324.59
	FillingsUpdate:  mu: -0.150101337  nElectrons: 260.000000  magneticMoment: [ Abs: 0.55856  Tot: +0.53301 ]
ElecMinimize: Iter:   0  F: -1038.875892785656106  |grad|_K:  1.408e-05  alpha:  1.000e+00
	Linear fluid (dielectric constant: 78.4, screening length: 5.74355 Bohr) occupying 0.683513 of unit cell:	Completed after 25 iterations at t[s]:   2369.65
	Linear fluid (dielectric constant: 78.4, screening length: 5.74355 Bohr) occupying 0.683459 of unit cell:	Completed after 25 iterations at t[s]:   2390.87
	FillingsUpdate:  mu: -0.162547636  nElectrons: 260.000000  magneticMoment: [ Abs: 0.57787  Tot: +0.55128 ]
	SubspaceRotationAdjust: set factor to 0.234
ElecMinimize: Iter:   1  F: -1038.877949252739882  |grad|_K:  3.910e-06  alpha:  1.202e-01  linmin: -9.875e-04  cgtest:  3.317e-01  t[s]:   2420.44
ElecMinimize: Encountered beta<0, resetting CG.
	Linear fluid (dielectric constant: 78.4, screening length: 5.74355 Bohr) occupying 0.683485 of unit cell:	Completed after 12 iterations at t[s]:   2438.86
ElecMinimize: 	Predicted alpha/alphaT>3.000000, increasing alphaT to 3.605331e-01.
	Linear fluid (dielectric constant: 78.4, screening length: 5.74355 Bohr) occupying 0.683536 of unit cell:	Completed after 14 iterations at t[s]:   2460.49
	Linear fluid (dielectric constant: 78.4, screening length: 5.74355 Bohr) occupying 0.683561 of unit cell:	Completed after 13 iterations at t[s]:   2482.78
	FillingsUpdate:  mu: -0.163022878  nElectrons: 260.000000  magneticMoment: [ Abs: 0.64511  Tot: +0.61383 ]
	SubspaceRotationAdjust: set factor to 0.258
ElecMinimize: Iter:   2  F: -1038.878519923860495  |grad|_K:  3.602e-06  alpha:  4.757e-01  linmin:  1.280e-06  cgtest: -1.084e-03  t[s]:   2505.23
	Linear fluid (dielectric constant: 78.4, screening length: 5.74355 Bohr) occupying 0.683740 of unit cell:	Completed after 12 iterations at t[s]:   2520.95
	Linear fluid (dielectric constant: 78.4, screening length: 5.74355 Bohr) occupying 0.683866 of unit cell:	Completed after 11 iterations at t[s]:   2547.23
	FillingsUpdate:  mu: -0.165661268  nElectrons: 260.000000  magneticMoment: [ Abs: 0.86257  Tot: +0.81691 ]
	SubspaceRotationAdjust: set factor to 0.203
ElecMinimize: Iter:   3  F: -1038.879338602858297  |grad|_K:  4.658e-06  alpha:  8.009e-01  linmin: -4.165e-06  cgtest:  5.064e-02  t[s]:   2568.16
	Linear fluid (dielectric constant: 78.4, screening length: 5.74355 Bohr) occupying 0.684542 of unit cell:	Completed after 21 iterations at t[s]:   2586.03
	Linear fluid (dielectric constant: 78.4, screening length: 5.74355 Bohr) occupying 0.684061 of unit cell:	Completed after 20 iterations at t[s]:   2617.77
	FillingsUpdate:  mu: -0.158920889  nElectrons: 260.000000  magneticMoment: [ Abs: 1.02405  Tot: +0.96842 ]
	SubspaceRotationAdjust: set factor to 0.151
ElecMinimize: Iter:   4  F: -1038.879728077245773  |grad|_K:  3.313e-06  alpha:  2.472e-01  linmin:  4.224e-05  cgtest: -1.328e-01  t[s]:   2639.84
	Linear fluid (dielectric constant: 78.4, screening length: 5.74355 Bohr) occupying 0.684146 of unit cell:	Completed after 12 iterations at t[s]:   2656.30
ElecMinimize: 	Predicted alpha/alphaT>3.000000, increasing alphaT to 7.415597e-01.
	Linear fluid (dielectric constant: 78.4, screening length: 5.74355 Bohr) occupying 0.684312 of unit cell:	Completed after 13 iterations at t[s]:   2683.38
	Linear fluid (dielectric constant: 78.4, screening length: 5.74355 Bohr) occupying 0.684610 of unit cell:	Completed after 16 iterations at t[s]:   2708.62
	FillingsUpdate:  mu: -0.161250238  nElectrons: 260.000000  magneticMoment: [ Abs: 1.97334  Tot: +1.86501 ]
	SubspaceRotationAdjust: set factor to 0.171
ElecMinimize: Iter:   5  F: -1038.881016975886268  |grad|_K:  6.041e-06  alpha:  1.648e+00  linmin:  5.749e-06  cgtest: -1.080e-01  t[s]:   2729.90
	Linear fluid (dielectric constant: 78.4, screening length: 5.74355 Bohr) occupying 0.685824 of unit cell:	Completed after 20 iterations at t[s]:   2748.54
	Linear fluid (dielectric constant: 78.4, screening length: 5.74355 Bohr) occupying 0.685353 of unit cell:	Completed after 19 iterations at t[s]:   2777.40
	FillingsUpdate:  mu: -0.156087525  nElectrons: 260.000000  magneticMoment: [ Abs: 4.03878  Tot: +3.83206 ]
	SubspaceRotationAdjust: set factor to 0.188
ElecMinimize: Iter:   6  F: -1038.883652094058334  |grad|_K:  1.271e-05  alpha:  8.929e-01  linmin: -8.939e-07  cgtest:  2.106e-01  t[s]:   2799.07
	Linear fluid (dielectric constant: 78.4, screening length: 5.74355 Bohr) occupying 0.686603 of unit cell:	Completed after 23 iterations at t[s]:   2821.85
	Linear fluid (dielectric constant: 78.4, screening length: 5.74355 Bohr) occupying 0.686378 of unit cell:	Completed after 14 iterations at t[s]:   2845.43
	FillingsUpdate:  mu: -0.181818873  nElectrons: 260.000000  magneticMoment: [ Abs: 10.28865  Tot: +9.99859 ]
	SubspaceRotationAdjust: set factor to 0.187
ElecMinimize: Iter:   7  F: -1038.894316542298156  |grad|_K:  2.944e-05  alpha:  6.579e-01  linmin:  1.033e-05  cgtest:  7.478e-01  t[s]:   2867.57
	Linear fluid (dielectric constant: 78.4, screening length: 5.74355 Bohr) occupying 0.659545 of unit cell:	Completed after 24 iterations at t[s]:   2889.72
	Linear fluid (dielectric constant: 78.4, screening length: 5.74355 Bohr) occupying 0.686516 of unit cell:	Completed after 23 iterations at t[s]:   2917.96
	FillingsUpdate:  mu: -0.183283394  nElectrons: 260.000000  magneticMoment: [ Abs: 11.32003  Tot: +11.03578 ]
	SubspaceRotationAdjust: set factor to 0.188
ElecMinimize: Iter:   8  F: -1038.898839670407369  |grad|_K:  3.033e-05  alpha:  3.876e-02  linmin: -7.069e-05  cgtest:  1.004e+00  t[s]:   2940.45
	Linear fluid (dielectric constant: 78.4, screening length: 5.74355 Bohr) occupying 0.686569 of unit cell:	Completed after 16 iterations at t[s]:   2962.33
ElecMinimize: 	Predicted alpha/alphaT>3.000000, increasing alphaT to 1.162679e-01.
	Linear fluid (dielectric constant: 78.4, screening length: 5.74355 Bohr) occupying 0.686676 of unit cell:	Completed after 21 iterations at t[s]:   2986.27
ElecMinimize: 	Predicted alpha/alphaT>3.000000, increasing alphaT to 3.488036e-01.
	Linear fluid (dielectric constant: 78.4, screening length: 5.74355 Bohr) occupying 0.687003 of unit cell:	Completed after 24 iterations at t[s]:   3019.18
	Linear fluid (dielectric constant: 78.4, screening length: 5.74355 Bohr) occupying 0.687387 of unit cell:	Completed after 23 iterations at t[s]:   3045.93
	FillingsUpdate:  mu: -0.167314232  nElectrons: 260.000000  magneticMoment: [ Abs: 15.26297  Tot: +15.04032 ]
	SubspaceRotationAdjust: set factor to 0.202
ElecMinimize: Iter:   9  F: -1038.952409038814039  |grad|_K:  3.238e-05  alpha:  6.319e-01  linmin:  4.201e-06  cgtest:  1.347e-01  t[s]:   3069.31
	Linear fluid (dielectric constant: 78.4, screening length: 5.74355 Bohr) occupying 0.686873 of unit cell:	Completed after 23 iterations at t[s]:   3092.32
	Linear fluid (dielectric constant: 78.4, screening length: 5.74355 Bohr) occupying 0.686995 of unit cell:	Completed after 15 iterations at t[s]:   3113.17
	FillingsUpdate:  mu: -0.165880822  nElectrons: 260.000000  magneticMoment: [ Abs: 17.10595  Tot: +16.88581 ]
	SubspaceRotationAdjust: set factor to 0.267
ElecMinimize: Iter:  10  F: -1038.990438307796467  |grad|_K:  3.056e-05  alpha:  4.722e-01  linmin: -5.055e-06  cgtest:  1.858e-01  t[s]:   3135.63
	Linear fluid (dielectric constant: 78.4, screening length: 5.74355 Bohr) occupying 0.685851 of unit cell:	Completed after 23 iterations at t[s]:   3160.57
	Linear fluid (dielectric constant: 78.4, screening length: 5.74355 Bohr) occupying 0.685721 of unit cell:	Completed after 13 iterations at t[s]:   3185.37
	FillingsUpdate:  mu: -0.154497793  nElectrons: 260.000000  magneticMoment: [ Abs: 18.15046  Tot: +17.88980 ]
	SubspaceRotationAdjust: set factor to 0.353
ElecMinimize: Iter:  11  F: -1039.029274581317168  |grad|_K:  2.513e-05  alpha:  5.250e-01  linmin: -3.122e-05  cgtest:  1.950e-02  t[s]:   3215.47
	Linear fluid (dielectric constant: 78.4, screening length: 5.74355 Bohr) occupying 0.684224 of unit cell:	Completed after 21 iterations at t[s]:   3236.96
	Linear fluid (dielectric constant: 78.4, screening length: 5.74355 Bohr) occupying 0.684022 of unit cell:	Completed after 13 iterations at t[s]:   3260.46
	FillingsUpdate:  mu: -0.167738308  nElectrons: 260.000000  magneticMoment: [ Abs: 18.68917  Tot: +18.37522 ]
	SubspaceRotationAdjust: set factor to 0.414
ElecMinimize: Iter:  12  F: -1039.060003231239079  |grad|_K:  2.863e-05  alpha:  5.984e-01  linmin: -9.641e-06  cgtest: -5.813e-02  t[s]:   3282.75
	Linear fluid (dielectric constant: 78.4, screening length: 5.74355 Bohr) occupying 0.682335 of unit cell:	Completed after 25 iterations at t[s]:   3306.26
	Linear fluid (dielectric constant: 78.4, screening length: 5.74355 Bohr) occupying 0.682950 of unit cell:	Completed after 21 iterations at t[s]:   3335.46
	FillingsUpdate:  mu: -0.176569280  nElectrons: 260.000000  magneticMoment: [ Abs: 18.94597  Tot: +18.61578 ]
	SubspaceRotationAdjust: set factor to 0.494
ElecMinimize: Iter:  13  F: -1039.084900778595056  |grad|_K:  1.681e-05  alpha:  3.669e-01  linmin: -2.196e-06  cgtest:  4.535e-03  t[s]:   3356.78
	Linear fluid (dielectric constant: 78.4, screening length: 5.74355 Bohr) occupying 0.683029 of unit cell:	Completed after 18 iterations at t[s]:   3373.74
	Linear fluid (dielectric constant: 78.4, screening length: 5.74355 Bohr) occupying 0.683033 of unit cell:	Completed after 8 iterations at t[s]:   3401.59
	FillingsUpdate:  mu: -0.169553577  nElectrons: 260.000000  magneticMoment: [ Abs: 18.97090  Tot: +18.62442 ]
	SubspaceRotationAdjust: set factor to 0.621
ElecMinimize: Iter:  14  F: -1039.093528009541842  |grad|_K:  1.382e-05  alpha:  3.858e-01  linmin:  2.015e-07  cgtest:  3.152e-02  t[s]:   3422.55
	Linear fluid (dielectric constant: 78.4, screening length: 5.74355 Bohr) occupying 0.683365 of unit cell:	Completed after 18 iterations at t[s]:   3439.25
	Linear fluid (dielectric constant: 78.4, screening length: 5.74355 Bohr) occupying 0.683332 of unit cell:	Completed after 12 iterations at t[s]:   3465.18
	FillingsUpdate:  mu: -0.162024930  nElectrons: 260.000000  magneticMoment: [ Abs: 18.95824  Tot: +18.60084 ]
	SubspaceRotationAdjust: set factor to 0.717
ElecMinimize: Iter:  15  F: -1039.098662193312521  |grad|_K:  9.895e-06  alpha:  3.426e-01  linmin:  2.275e-07  cgtest:  3.150e-02  t[s]:   3485.37
	Linear fluid (dielectric constant: 78.4, screening length: 5.74355 Bohr) occupying 0.683532 of unit cell:	Completed after 18 iterations at t[s]:   3503.47
	Linear fluid (dielectric constant: 78.4, screening length: 5.74355 Bohr) occupying 0.683550 of unit cell:	Completed after 12 iterations at t[s]:   3532.25
	FillingsUpdate:  mu: -0.166145278  nElectrons: 260.000000  magneticMoment: [ Abs: 18.96768  Tot: +18.64338 ]
	SubspaceRotationAdjust: set factor to 0.756
ElecMinimize: Iter:  16  F: -1039.101604487617578  |grad|_K:  7.594e-06  alpha:  3.833e-01  linmin:  4.521e-07  cgtest: -1.049e-03  t[s]:   3554.24
	Linear fluid (dielectric constant: 78.4, screening length: 5.74355 Bohr) occupying 0.683620 of unit cell:	Completed after 13 iterations at t[s]:   3569.12
	Linear fluid (dielectric constant: 78.4, screening length: 5.74355 Bohr) occupying 0.683610 of unit cell:	Completed after 12 iterations at t[s]:   3593.74
	FillingsUpdate:  mu: -0.168911926  nElectrons: 260.000000  magneticMoment: [ Abs: 18.93295  Tot: +18.60995 ]
	SubspaceRotationAdjust: set factor to 0.633
ElecMinimize: Iter:  17  F: -1039.102935430484649  |grad|_K:  5.185e-06  alpha:  2.930e-01  linmin:  9.012e-07  cgtest:  1.015e-02  t[s]:   3619.29
	Linear fluid (dielectric constant: 78.4, screening length: 5.74355 Bohr) occupying 0.683714 of unit cell:	Completed after 12 iterations at t[s]:   3633.59
	Linear fluid (dielectric constant: 78.4, screening length: 5.74355 Bohr) occupying 0.683735 of unit cell:	Completed after 9 iterations at t[s]:   3658.31
	FillingsUpdate:  mu: -0.167185428  nElectrons: 260.000000  magneticMoment: [ Abs: 18.90813  Tot: +18.60703 ]
	SubspaceRotationAdjust: set factor to 0.512
ElecMinimize: Iter:  18  F: -1039.103690196545131  |grad|_K:  3.942e-06  alpha:  3.586e-01  linmin: -2.211e-07  cgtest:  3.596e-02  t[s]:   3680.76
	Linear fluid (dielectric constant: 78.4, screening length: 5.74355 Bohr) occupying 0.683780 of unit cell:	Completed after 16 iterations at t[s]:   3699.32
	Linear fluid (dielectric constant: 78.4, screening length: 5.74355 Bohr) occupying 0.683776 of unit cell:	Completed after 6 iterations at t[s]:   3722.58
	FillingsUpdate:  mu: -0.166732584  nElectrons: 260.000000  magneticMoment: [ Abs: 18.87070  Tot: +18.57363 ]
	SubspaceRotationAdjust: set factor to 0.582
ElecMinimize: Iter:  19  F: -1039.104076500439760  |grad|_K:  2.525e-06  alpha:  3.161e-01  linmin:  4.089e-06  cgtest: -1.495e-02  t[s]:   3741.64
	Linear fluid (dielectric constant: 78.4, screening length: 5.74355 Bohr) occupying 0.683797 of unit cell:	Completed after 11 iterations at t[s]:   3758.03
	Linear fluid (dielectric constant: 78.4, screening length: 5.74355 Bohr) occupying 0.683804 of unit cell:	Completed after 8 iterations at t[s]:   3780.67
	FillingsUpdate:  mu: -0.167614555  nElectrons: 260.000000  magneticMoment: [ Abs: 18.84571  Tot: +18.55629 ]
	SubspaceRotationAdjust: set factor to 0.66
ElecMinimize: Iter:  20  F: -1039.104292591612193  |grad|_K:  2.082e-06  alpha:  4.329e-01  linmin:  1.208e-06  cgtest:  1.481e-02  t[s]:   3803.26
	Linear fluid (dielectric constant: 78.4, screening length: 5.74355 Bohr) occupying 0.683848 of unit cell:	Completed after 8 iterations at t[s]:   3817.06
	Linear fluid (dielectric constant: 78.4, screening length: 5.74355 Bohr) occupying 0.683842 of unit cell:	Completed after 3 iterations at t[s]:   3841.49
	FillingsUpdate:  mu: -0.167542877  nElectrons: 260.000000  magneticMoment: [ Abs: 18.83195  Tot: +18.54935 ]
	SubspaceRotationAdjust: set factor to 0.805
ElecMinimize: Iter:  21  F: -1039.104418738570985  |grad|_K:  1.830e-06  alpha:  3.715e-01  linmin:  4.020e-07  cgtest:  3.047e-02  t[s]:   3861.94
	Linear fluid (dielectric constant: 78.4, screening length: 5.74355 Bohr) occupying 0.683878 of unit cell:	Completed after 13 iterations at t[s]:   3876.79
	Linear fluid (dielectric constant: 78.4, screening length: 5.74355 Bohr) occupying 0.683876 of unit cell:	Completed after 0 iterations at t[s]:   3900.46
	FillingsUpdate:  mu: -0.166569009  nElectrons: 260.000000  magneticMoment: [ Abs: 18.81997  Tot: +18.54039 ]
	SubspaceRotationAdjust: set factor to 0.862
ElecMinimize: Iter:  22  F: -1039.104512494645860  |grad|_K:  1.196e-06  alpha:  3.570e-01  linmin:  1.419e-06  cgtest:  1.004e-02  t[s]:   3920.49
	Linear fluid (dielectric constant: 78.4, screening length: 5.74355 Bohr) occupying 0.683876 of unit cell:	Completed after 11 iterations at t[s]:   3939.21
	Linear fluid (dielectric constant: 78.4, screening length: 5.74355 Bohr) occupying 0.683876 of unit cell:	Completed after 3 iterations at t[s]:   3957.00
	FillingsUpdate:  mu: -0.167315554  nElectrons: 260.000000  magneticMoment: [ Abs: 18.82086  Tot: +18.54420 ]
	SubspaceRotationAdjust: set factor to 0.824
ElecMinimize: Iter:  23  F: -1039.104547732076298  |grad|_K:  9.638e-07  alpha:  3.160e-01  linmin: -3.855e-07  cgtest:  3.730e-03  t[s]:   3979.73
	Linear fluid (dielectric constant: 78.4, screening length: 5.74355 Bohr) occupying 0.683869 of unit cell:	Completed after 12 iterations at t[s]:   3997.28
	Linear fluid (dielectric constant: 78.4, screening length: 5.74355 Bohr) occupying 0.683871 of unit cell:	Completed after 6 iterations at t[s]:   4018.04
	FillingsUpdate:  mu: -0.167229657  nElectrons: 260.000000  magneticMoment: [ Abs: 18.81916  Tot: +18.54079 ]
	SubspaceRotationAdjust: set factor to 0.6
ElecMinimize: Iter:  24  F: -1039.104565023935265  |grad|_K:  6.890e-07  alpha:  2.371e-01  linmin: -3.758e-08  cgtest:  1.217e-02  t[s]:   4040.31
	Linear fluid (dielectric constant: 78.4, screening length: 5.74355 Bohr) occupying 0.683876 of unit cell:	Completed after 8 iterations at t[s]:   4054.94
	Linear fluid (dielectric constant: 78.4, screening length: 5.74355 Bohr) occupying 0.683877 of unit cell:	Completed after 3 iterations at t[s]:   4076.16
	FillingsUpdate:  mu: -0.167075726  nElectrons: 260.000000  magneticMoment: [ Abs: 18.82327  Tot: +18.54581 ]
	SubspaceRotationAdjust: set factor to 0.463
ElecMinimize: Iter:  25  F: -1039.104575413207385  |grad|_K:  4.020e-07  alpha:  2.781e-01  linmin: -8.455e-06  cgtest:  8.454e-02  t[s]:   4097.70
	Linear fluid (dielectric constant: 78.4, screening length: 5.74355 Bohr) occupying 0.683874 of unit cell:	Completed after 2 iterations at t[s]:   4112.62
	Linear fluid (dielectric constant: 78.4, screening length: 5.74355 Bohr) occupying 0.683872 of unit cell:	Completed after 2 iterations at t[s]:   4132.30
	FillingsUpdate:  mu: -0.167045302  nElectrons: 260.000000  magneticMoment: [ Abs: 18.82572  Tot: +18.54779 ]
	SubspaceRotationAdjust: set factor to 0.544
ElecMinimize: Iter:  26  F: -1039.104580937112814  |grad|_K:  3.636e-07  alpha:  4.301e-01  linmin: -6.673e-08  cgtest: -3.407e-02  t[s]:   4152.64
	Linear fluid (dielectric constant: 78.4, screening length: 5.74355 Bohr) occupying 0.683864 of unit cell:	Completed after 7 iterations at t[s]:   4169.66
	Linear fluid (dielectric constant: 78.4, screening length: 5.74355 Bohr) occupying 0.683865 of unit cell:	Completed after 2 iterations at t[s]:   4188.88
	FillingsUpdate:  mu: -0.167060351  nElectrons: 260.000000  magneticMoment: [ Abs: 18.82778  Tot: +18.54902 ]
	SubspaceRotationAdjust: set factor to 0.532
ElecMinimize: Iter:  27  F: -1039.104584685902637  |grad|_K:  2.766e-07  alpha:  3.624e-01  linmin:  3.232e-06  cgtest:  2.304e-02  t[s]:   4210.82
	Linear fluid (dielectric constant: 78.4, screening length: 5.74355 Bohr) occupying 0.683861 of unit cell:	Completed after 7 iterations at t[s]:   4225.92
	Linear fluid (dielectric constant: 78.4, screening length: 5.74355 Bohr) occupying 0.683861 of unit cell:	Completed after 0 iterations at t[s]:   4244.21
	FillingsUpdate:  mu: -0.167118171  nElectrons: 260.000000  magneticMoment: [ Abs: 18.83079  Tot: +18.55205 ]
	SubspaceRotationAdjust: set factor to 0.541
ElecMinimize: Iter:  28  F: -1039.104587042191042  |grad|_K:  2.222e-07  alpha:  3.924e-01  linmin: -1.214e-05  cgtest:  7.637e-02  t[s]:   4263.35
	Linear fluid (dielectric constant: 78.4, screening length: 5.74355 Bohr) occupying 0.683857 of unit cell:	Completed after 3 iterations at t[s]:   4278.71
	Linear fluid (dielectric constant: 78.4, screening length: 5.74355 Bohr) occupying 0.683857 of unit cell:	Completed after 0 iterations at t[s]:   4298.88
	FillingsUpdate:  mu: -0.167150142  nElectrons: 260.000000  magneticMoment: [ Abs: 18.83209  Tot: +18.55287 ]
	SubspaceRotationAdjust: set factor to 0.61
ElecMinimize: Iter:  29  F: -1039.104588571595514  |grad|_K:  1.792e-07  alpha:  3.808e-01  linmin:  1.253e-06  cgtest: -3.262e-02  t[s]:   4319.66
	Linear fluid (dielectric constant: 78.4, screening length: 5.74355 Bohr) occupying 0.683855 of unit cell:	Completed after 2 iterations at t[s]:   4333.18
	Linear fluid (dielectric constant: 78.4, screening length: 5.74355 Bohr) occupying 0.683855 of unit cell:	Completed after 0 iterations at t[s]:   4352.11
	FillingsUpdate:  mu: -0.167115676  nElectrons: 260.000000  magneticMoment: [ Abs: 18.83248  Tot: +18.55279 ]
	SubspaceRotationAdjust: set factor to 0.693
ElecMinimize: Iter:  30  F: -1039.104589584635505  |grad|_K:  1.287e-07  alpha:  4.024e-01  linmin: -1.002e-05  cgtest:  6.049e-02  t[s]:   4373.73
	Linear fluid (dielectric constant: 78.4, screening length: 5.74355 Bohr) occupying 0.683853 of unit cell:	Completed after 2 iterations at t[s]:   4389.20
	Linear fluid (dielectric constant: 78.4, screening length: 5.74355 Bohr) occupying 0.683853 of unit cell:	Completed after 0 iterations at t[s]:   4406.90
	FillingsUpdate:  mu: -0.167120261  nElectrons: 260.000000  magneticMoment: [ Abs: 18.83251  Tot: +18.55269 ]
	SubspaceRotationAdjust: set factor to 0.771
ElecMinimize: Iter:  31  F: -1039.104590167602964  |grad|_K:  1.266e-07  alpha:  4.343e-01  linmin: -6.540e-06  cgtest:  2.761e-02  t[s]:   4428.54
	Linear fluid (dielectric constant: 78.4, screening length: 5.74355 Bohr) occupying 0.683853 of unit cell:	Completed after 3 iterations at t[s]:   4441.74
	Linear fluid (dielectric constant: 78.4, screening length: 5.74355 Bohr) occupying 0.683853 of unit cell:	Completed after 0 iterations at t[s]:   4460.86
	FillingsUpdate:  mu: -0.167132274  nElectrons: 260.000000  magneticMoment: [ Abs: 18.83256  Tot: +18.55290 ]
	SubspaceRotationAdjust: set factor to 0.658
ElecMinimize: Iter:  32  F: -1039.104590596184380  |grad|_K:  1.104e-07  alpha:  3.262e-01  linmin:  4.427e-05  cgtest: -4.985e-02  t[s]:   4483.44
	Linear fluid (dielectric constant: 78.4, screening length: 5.74355 Bohr) occupying 0.683853 of unit cell:	Completed after 2 iterations at t[s]:   4496.93
	Linear fluid (dielectric constant: 78.4, screening length: 5.74355 Bohr) occupying 0.683853 of unit cell:	Completed after 0 iterations at t[s]:   4516.76
	FillingsUpdate:  mu: -0.167150895  nElectrons: 260.000000  magneticMoment: [ Abs: 18.83192  Tot: +18.55204 ]
	SubspaceRotationAdjust: set factor to 0.545
ElecMinimize: Iter:  33  F: -1039.104590826278582  |grad|_K:  8.982e-08  alpha:  2.718e-01  linmin: -1.658e-05  cgtest:  1.356e-01  t[s]:   4538.08
	Linear fluid (dielectric constant: 78.4, screening length: 5.74355 Bohr) occupying 0.683854 of unit cell:	Completed after 2 iterations at t[s]:   4553.84
	Linear fluid (dielectric constant: 78.4, screening length: 5.74355 Bohr) occupying 0.683854 of unit cell:	Completed after 0 iterations at t[s]:   4571.95
	FillingsUpdate:  mu: -0.167105591  nElectrons: 260.000000  magneticMoment: [ Abs: 18.83163  Tot: +18.55179 ]
	SubspaceRotationAdjust: set factor to 0.553
ElecMinimize: Iter:  34  F: -1039.104590998140566  |grad|_K:  6.834e-08  alpha:  2.602e-01  linmin: -1.759e-05  cgtest:  2.350e-02  t[s]:   4591.08
	Linear fluid (dielectric constant: 78.4, screening length: 5.74355 Bohr) occupying 0.683854 of unit cell:	Completed after 0 iterations at t[s]:   4606.56
	Linear fluid (dielectric constant: 78.4, screening length: 5.74355 Bohr) occupying 0.683855 of unit cell:	Completed after 2 iterations at t[s]:   4626.89
	FillingsUpdate:  mu: -0.167113929  nElectrons: 260.000000  magneticMoment: [ Abs: 18.83124  Tot: +18.55151 ]
	SubspaceRotationAdjust: set factor to 0.595
ElecMinimize: Iter:  35  F: -1039.104591180017678  |grad|_K:  7.619e-08  alpha:  5.533e-01  linmin:  2.080e-05  cgtest: -1.457e-01  t[s]:   4647.11
	Linear fluid (dielectric constant: 78.4, screening length: 5.74355 Bohr) occupying 0.683856 of unit cell:	Completed after 3 iterations at t[s]:   4661.61
	Linear fluid (dielectric constant: 78.4, screening length: 5.74355 Bohr) occupying 0.683856 of unit cell:	Completed after 0 iterations at t[s]:   4682.88
	FillingsUpdate:  mu: -0.167147779  nElectrons: 260.000000  magneticMoment: [ Abs: 18.83099  Tot: +18.55137 ]
	SubspaceRotationAdjust: set factor to 0.616
ElecMinimize: Iter:  36  F: -1039.104591321258567  |grad|_K:  6.033e-08  alpha:  3.533e-01  linmin:  9.559e-06  cgtest:  2.090e-01  t[s]:   4704.67
	Linear fluid (dielectric constant: 78.4, screening length: 5.74355 Bohr) occupying 0.683856 of unit cell:	Completed after 2 iterations at t[s]:   4719.70
	Linear fluid (dielectric constant: 78.4, screening length: 5.74355 Bohr) occupying 0.683856 of unit cell:	Completed after 0 iterations at t[s]:   4736.76
	FillingsUpdate:  mu: -0.167126012  nElectrons: 260.000000  magneticMoment: [ Abs: 18.83072  Tot: +18.55106 ]
	SubspaceRotationAdjust: set factor to 0.654
ElecMinimize: Iter:  37  F: -1039.104591393418559  |grad|_K:  4.906e-08  alpha:  2.724e-01  linmin:  1.921e-06  cgtest:  6.011e-02  t[s]:   4758.15
	Linear fluid (dielectric constant: 78.4, screening length: 5.74355 Bohr) occupying 0.683856 of unit cell:	Completed after 0 iterations at t[s]:   4771.98
	Linear fluid (dielectric constant: 78.4, screening length: 5.74355 Bohr) occupying 0.683856 of unit cell:	Completed after 2 iterations at t[s]:   4793.96
	FillingsUpdate:  mu: -0.167128493  nElectrons: 260.000000  magneticMoment: [ Abs: 18.83049  Tot: +18.55072 ]
	SubspaceRotationAdjust: set factor to 0.628
ElecMinimize: Iter:  38  F: -1039.104591411176216  |grad|_K:  7.680e-08  alpha:  5.103e-01  linmin:  1.474e-04  cgtest: -4.626e-01  t[s]:   4815.07
	Linear fluid (dielectric constant: 78.4, screening length: 5.74355 Bohr) occupying 0.683858 of unit cell:	Completed after 3 iterations at t[s]:   4830.16
	Linear fluid (dielectric constant: 78.4, screening length: 5.74355 Bohr) occupying 0.683857 of unit cell:	Completed after 1 iterations at t[s]:   4847.08
	FillingsUpdate:  mu: -0.167104824  nElectrons: 260.000000  magneticMoment: [ Abs: 18.83063  Tot: +18.55097 ]
	SubspaceRotationAdjust: set factor to 0.915
ElecMinimize: Iter:  39  F: -1039.104591454944966  |grad|_K:  5.319e-08  alpha:  1.965e-01  linmin:  7.237e-06  cgtest:  7.533e-01  t[s]:   4869.89
ElecMinimize: Encountered beta<0, resetting CG.
	Linear fluid (dielectric constant: 78.4, screening length: 5.74355 Bohr) occupying 0.683857 of unit cell:	Completed after 0 iterations at t[s]:   4883.77
	Linear fluid (dielectric constant: 78.4, screening length: 5.74355 Bohr) occupying 0.683857 of unit cell:	Completed after 0 iterations at t[s]:   4903.89
	FillingsUpdate:  mu: -0.167103831  nElectrons: 260.000000  magneticMoment: [ Abs: 18.83092  Tot: +18.55138 ]
	SubspaceRotationAdjust: set factor to 0.986
ElecMinimize: Iter:  40  F: -1039.104591522212104  |grad|_K:  3.760e-08  alpha:  2.826e-01  linmin: -1.981e-04  cgtest:  3.548e-01  t[s]:   4924.14
	Linear fluid (dielectric constant: 78.4, screening length: 5.74355 Bohr) occupying 0.683856 of unit cell:	Completed after 3 iterations at t[s]:   4940.84
	Linear fluid (dielectric constant: 78.4, screening length: 5.74355 Bohr) occupying 0.683857 of unit cell:	Completed after 0 iterations at t[s]:   4959.21
	FillingsUpdate:  mu: -0.167120449  nElectrons: 260.000000  magneticMoment: [ Abs: 18.83103  Tot: +18.55153 ]
	SubspaceRotationAdjust: set factor to 0.629
ElecMinimize: Iter:  41  F: -1039.104591527261164  |grad|_K:  8.774e-08  alpha:  7.518e-02  linmin:  3.485e-04  cgtest: -3.789e-01  t[s]:   4981.24
	Linear fluid (dielectric constant: 78.4, screening length: 5.74355 Bohr) occupying 0.683856 of unit cell:	Completed after 0 iterations at t[s]:   4996.36
	Linear fluid (dielectric constant: 78.4, screening length: 5.74355 Bohr) occupying 0.683856 of unit cell:	Completed after 1 iterations at t[s]:   5014.34
ElecMinimize: 	Step increased F by 1.546232e-08, reducing alpha to 1.124120e-02.
	Linear fluid (dielectric constant: 78.4, screening length: 5.74355 Bohr) occupying 0.683857 of unit cell:	Completed after 0 iterations at t[s]:   5046.68
ElecMinimize: 	Step increased F by 9.329597e-09, reducing alpha to 1.124120e-03.
	Linear fluid (dielectric constant: 78.4, screening length: 5.74355 Bohr) occupying 0.683857 of unit cell:	Completed after 0 iterations at t[s]:   5080.50
ElecMinimize: 	Step increased F by 1.100466e-08, reducing alpha to 1.124120e-04.
ElecMinimize: 	Step failed to reduce F after 3 attempts. Quitting step.
ElecMinimize: 	Undoing step.
	Linear fluid (dielectric constant: 78.4, screening length: 5.74355 Bohr) occupying 0.683857 of unit cell:	Completed after 0 iterations at t[s]:   5115.31
ElecMinimize: 	Step failed: resetting search direction.
	FillingsUpdate:  mu: -0.167150261  nElectrons: 260.000000  magneticMoment: [ Abs: 18.83103  Tot: +18.55154 ]
	SubspaceRotationAdjust: set factor to 0.491
ElecMinimize: Iter:  42  F: -1039.104591516249684  |grad|_K:  3.826e-08  alpha:  1.124e-04
	Linear fluid (dielectric constant: 78.4, screening length: 5.74355 Bohr) occupying 0.683857 of unit cell:	Completed after 0 iterations at t[s]:   5149.18
ElecMinimize: 	Predicted alpha/alphaT>3.000000, increasing alphaT to 2.255455e-01.
	Linear fluid (dielectric constant: 78.4, screening length: 5.74355 Bohr) occupying 0.683857 of unit cell:	Completed after 0 iterations at t[s]:   5168.33
ElecMinimize: 	Predicted alpha/alphaT>3.000000, increasing alphaT to 6.766365e-01.
	Linear fluid (dielectric constant: 78.4, screening length: 5.74355 Bohr) occupying 0.683857 of unit cell:	Completed after 3 iterations at t[s]:   5188.13
	Linear fluid (dielectric constant: 78.4, screening length: 5.74355 Bohr) occupying 0.683857 of unit cell:	Completed after 3 iterations at t[s]:   5208.26
	FillingsUpdate:  mu: -0.167084737  nElectrons: 260.000000  magneticMoment: [ Abs: 18.83090  Tot: +18.55133 ]
	SubspaceRotationAdjust: set factor to 0.255
ElecMinimize: Iter:  43  F: -1039.104591526427157  |grad|_K:  2.534e-08  alpha:  1.812e-01  linmin:  6.459e-04  cgtest: -3.751e-01  t[s]:   5227.92
	Linear fluid (dielectric constant: 78.4, screening length: 5.74355 Bohr) occupying 0.683856 of unit cell:	Completed after 0 iterations at t[s]:   5243.28
	Linear fluid (dielectric constant: 78.4, screening length: 5.74355 Bohr) occupying 0.683856 of unit cell:	Completed after 0 iterations at t[s]:   5259.17
	FillingsUpdate:  mu: -0.167089529  nElectrons: 260.000000  magneticMoment: [ Abs: 18.83097  Tot: +18.55137 ]
	SubspaceRotationAdjust: set factor to 0.363
ElecMinimize: Iter:  44  F: -1039.104591540725323  |grad|_K:  2.927e-08  alpha:  4.599e-01  linmin:  6.800e-05  cgtest:  2.453e-01  t[s]:   5279.61
	Linear fluid (dielectric constant: 78.4, screening length: 5.74355 Bohr) occupying 0.683855 of unit cell:	Completed after 2 iterations at t[s]:   5295.49
	Linear fluid (dielectric constant: 78.4, screening length: 5.74355 Bohr) occupying 0.683856 of unit cell:	Completed after 0 iterations at t[s]:   5313.60
ElecMinimize: 	Step increased F by 1.593821e-08, reducing alpha to 1.397238e-02.
	Linear fluid (dielectric constant: 78.4, screening length: 5.74355 Bohr) occupying 0.683856 of unit cell:	Completed after 0 iterations at t[s]:   5347.64
ElecMinimize: 	Step increased F by 1.616218e-08, reducing alpha to 1.397238e-03.
	Linear fluid (dielectric constant: 78.4, screening length: 5.74355 Bohr) occupying 0.683856 of unit cell:	Completed after 0 iterations at t[s]:   5382.66
ElecMinimize: 	Step increased F by 1.637636e-08, reducing alpha to 1.397238e-04.
ElecMinimize: 	Step failed to reduce F after 3 attempts. Quitting step.
ElecMinimize: 	Undoing step.
	Linear fluid (dielectric constant: 78.4, screening length: 5.74355 Bohr) occupying 0.683856 of unit cell:	Completed after 0 iterations at t[s]:   5416.80
ElecMinimize: 	Step failed: resetting search direction.
	FillingsUpdate:  mu: -0.167133834  nElectrons: 260.000000  magneticMoment: [ Abs: 18.83097  Tot: +18.55137 ]
	SubspaceRotationAdjust: set factor to 0.375
ElecMinimize: Iter:  45  F: -1039.104591524364423  |grad|_K:  4.947e-08  alpha:  1.397e-04
	Linear fluid (dielectric constant: 78.4, screening length: 5.74355 Bohr) occupying 0.683856 of unit cell:	Completed after 2 iterations at t[s]:   5450.97
	Linear fluid (dielectric constant: 78.4, screening length: 5.74355 Bohr) occupying 0.683856 of unit cell:	Completed after 3 iterations at t[s]:   5473.90
	FillingsUpdate:  mu: -0.167118550  nElectrons: 260.000000  magneticMoment: [ Abs: 18.83104  Tot: +18.55148 ]
	SubspaceRotationAdjust: set factor to 0.239
ElecMinimize: Iter:  46  F: -1039.104591535046211  |grad|_K:  1.213e-08  alpha:  1.395e-01  linmin:  7.438e-04  cgtest: -3.710e-01  t[s]:   5495.42
	Linear fluid (dielectric constant: 78.4, screening length: 5.74355 Bohr) occupying 0.683856 of unit cell:	Completed after 0 iterations at t[s]:   5509.88
	Linear fluid (dielectric constant: 78.4, screening length: 5.74355 Bohr) occupying 0.683856 of unit cell:	Completed after 0 iterations at t[s]:   5527.35
	FillingsUpdate:  mu: -0.167118513  nElectrons: 260.000000  magneticMoment: [ Abs: 18.83108  Tot: +18.55153 ]
	SubspaceRotationAdjust: set factor to 0.289
ElecMinimize: Iter:  47  F: -1039.104591538487966  |grad|_K:  1.238e-08  alpha:  3.342e-01  linmin: -6.328e-05  cgtest:  4.767e-01  t[s]:   5548.83
	Linear fluid (dielectric constant: 78.4, screening length: 5.74355 Bohr) occupying 0.683856 of unit cell:	Completed after 0 iterations at t[s]:   5561.38
	Linear fluid (dielectric constant: 78.4, screening length: 5.74355 Bohr) occupying 0.683856 of unit cell:	Completed after 0 iterations at t[s]:   5580.49
	FillingsUpdate:  mu: -0.167118181  nElectrons: 260.000000  magneticMoment: [ Abs: 18.83115  Tot: +18.55162 ]
	SubspaceRotationAdjust: set factor to 0.343
ElecMinimize: Iter:  48  F: -1039.104591547219343  |grad|_K:  9.148e-09  alpha:  5.824e-01  linmin: -6.443e-05  cgtest:  8.044e-02  t[s]:   5601.28
ElecMinimize: Converged (|Delta F|<1.000000e-08 for 2 iters).
Setting wave functions to eigenvectors of Hamiltonian
Single-point solvation energy estimate, DeltaF = -0.223504931599336

# Ionic positions in lattice coordinates:
ion Mn   0.333333333333332   0.333333333333333   0.326662948576489 0
ion Mn   0.833333333333332   0.333333333333333   0.326662948576489 0
ion Mn   0.333333333333332   0.833333333333333   0.326662948576489 0
ion Mn   0.833333333333332   0.833333333333333   0.326662948576489 0
ion In   0.999999999999999   1.000000000000000   0.484786287994845 0
ion In   0.499999999999999   1.000000000000000   0.484786287994845 0
ion In   0.999999999999999   0.500000000000000   0.484786287994845 0
ion In   0.499999999999999   0.500000000000000   0.484786287994845 0
ion In   0.166666666666666   0.166666666666667   0.652915091306532 0
ion In   0.666666666666666   0.166666666666667   0.652915091306532 0
ion In   0.166666666666666   0.666666666666667   0.652915091306532 0
ion In   0.666666666666666   0.666666666666667   0.652915091306532 0
ion Se  -0.000000000000001   0.000000000000000   0.298469141892462 0
ion Se   0.499999999999999   0.000000000000000   0.298469141892462 0
ion Se  -0.000000000000001   0.500000000000000   0.298469141892462 0
ion Se   0.499999999999999   0.500000000000000   0.298469141892462 0
ion Se   0.999999999999999   1.000000000000000   0.701500805621476 0
ion Se   0.499999999999999   1.000000000000000   0.701500805621476 0
ion Se   0.999999999999999   0.500000000000000   0.701500805621476 0
ion Se   0.499999999999999   0.500000000000000   0.701500805621476 0
ion Se   0.333333333333332   0.333333333333333   0.429372098732532 0
ion Se   0.833333333333332   0.333333333333333   0.429372098732532 0
ion Se   0.333333333333332   0.833333333333333   0.429372098732532 0
ion Se   0.833333333333332   0.833333333333333   0.429372098732532 0
ion Se   0.166666666666666   0.166666666666667   0.549323683800032 0
ion Se   0.666666666666666   0.166666666666667   0.549323683800032 0
ion Se   0.166666666666666   0.666666666666667   0.549323683800032 0
ion Se   0.666666666666666   0.666666666666667   0.549323683800032 0


# Forces in Lattice coordinates:
force Mn   0.000000000000000   0.000000000000000  -0.003374910351811 0
force Mn  -0.000000000000000   0.000000000000000  -0.003374910351811 0
force Mn   0.000000000000000   0.000000000000000  -0.003374910352265 0
force Mn  -0.000000000000000   0.000000000000000  -0.003374910351811 0
force In   0.000000000000000  -0.000000000000000   0.159621324132672 0
force In  -0.000000000000000  -0.000000000000000   0.159621324132672 0
force In   0.000000000000000  -0.000000000000000   0.159621324132671 0
force In   0.000000000000000   0.000000000000000   0.159621324132672 0
force In  -0.000000000000000   0.000000000000000   0.167884253059853 0
force In   0.000000000000000   0.000000000000000   0.167884253060307 0
force In  -0.000000000000000   0.000000000000000   0.167884253060307 0
force In   0.000000000000000   0.000000000000000   0.167884253060307 0
force Se  -0.000000000000000   0.000000000000000  -0.140096151411707 0
force Se   0.000000000000000   0.000000000000000  -0.140096151411706 0
force Se   0.000000000000000   0.000000000000000  -0.140096151411707 0
force Se  -0.000000000000000   0.000000000000000  -0.140096151411706 0
force Se   0.000000000000000  -0.000000000000000   0.003814489511568 0
force Se   0.000000000000000   0.000000000000000   0.003814489511796 0
force Se  -0.000000000000000  -0.000000000000000   0.003814489511795 0
force Se  -0.000000000000000   0.000000000000000   0.003814489511568 0
force Se  -0.000000000000000   0.000000000000000  -0.043476820717098 0
force Se   0.000000000000000   0.000000000000000  -0.043476820717155 0
force Se  -0.000000000000000   0.000000000000000  -0.043476820717098 0
force Se  -0.000000000000000  -0.000000000000000  -0.043476820717212 0
force Se   0.000000000000000  -0.000000000000000  -0.124216175212222 0
force Se   0.000000000000000   0.000000000000000  -0.124216175212450 0
force Se  -0.000000000000000   0.000000000000000  -0.124216175212450 0
force Se   0.000000000000000   0.000000000000000  -0.124216175212336 0

# Energy components:
   A_diel =       -0.0274050067820042
   Eewald =     8503.5258922705288569
       EH =     9417.9410395207578404
     Eloc =   -19228.0387005105767457
      Enl =      161.9224945478376867
      Exc =     -442.1941918211027769
 Exc_core =      266.4990697598665292
       KE =      281.2853935227037709
-------------------------------------
     Etot =    -1039.0864077167686901
       TS =        0.0181838304505790
-------------------------------------
        F =    -1039.1045915472193428

IonicMinimize: Iter:   0  F: -1039.104591547219343  |grad|_K:  0.000e+00  t[s]:   5614.50
IonicMinimize: Converged (|grad|_K<1.000000e-04).

#--- Lowdin population analysis ---
# oxidation-state Mn -0.193 -0.193 -0.193 -0.193
# magnetic-moments Mn +4.523 +4.523 +4.523 +4.523
# oxidation-state In +0.431 +0.431 +0.431 +0.431 +0.406 +0.406 +0.406 +0.406
# magnetic-moments In +0.022 +0.022 +0.022 +0.022 +0.005 +0.005 +0.005 +0.005
# oxidation-state Se +0.048 +0.048 +0.048 +0.048 -0.170 -0.170 -0.170 -0.170 -0.089 -0.089 -0.089 -0.089 -0.287 -0.287 -0.287 -0.287
# magnetic-moments Se +0.056 +0.056 +0.056 +0.056 +0.005 +0.005 +0.005 +0.005 +0.002 +0.002 +0.002 +0.002 +0.014 +0.014 +0.014 +0.014


Dumping 'NbTe2.fillings' ... done
Dumping 'NbTe2.wfns' ... done
Dumping 'NbTe2.fluidState' ... done
Dumping 'NbTe2.eigenvals' ... done
End date and time: Wed Jul 15 23:55:25 2020  (Duration: 0-1:33:37.13)
Done!
