
*************** JDFTx 1.5.0  ***************

Start date and time: Thu Feb  4 16:46:35 2021
Executable jdftx_gpu with command-line: -i Charged.in -o Charged.out
Running on hosts (process indices):  amax (0-6)
Divided in process groups (process indices):  0 (0)  1 (1)  2 (2)  3 (3)  4 (4)  5 (5)  6 (6)
gpuInit: Found compatible cuda device 0 'Tesla K80'
gpuInit: Found compatible cuda device 1 'Tesla K80'
gpuInit: Found compatible cuda device 2 'Tesla K80'
gpuInit: Found compatible cuda device 3 'Tesla K80'
gpuInit: Found compatible cuda device 4 'Tesla K80'
gpuInit: Found compatible cuda device 5 'Tesla K80'
gpuInit: Found compatible cuda device 6 'Tesla K80'
gpuInit: Selected device 0
Resource initialization completed at t[s]:      3.32
Run totals: 7 processes, 24 threads, 7 GPUs


Input parsed successfully to the following command list (including defaults):

basis kpoint-dependent
cache-projectors no
coords-type Lattice
core-overlap-check none
coulomb-interaction Slab 001
coulomb-truncation-embed 0.5 0.5 0.5
davidson-band-ratio 1.1
dump End State
dump-name NbTe2.$VAR
elec-cutoff 20
elec-eigen-algo Davidson
elec-ex-corr gga-PBE
elec-initial-magnetization 20.000000 no
elec-smearing Gauss 0.0073499
electronic-minimize  \
	dirUpdateScheme      FletcherReeves \
	linminMethod         DirUpdateRecommended \
	nIterations          200 \
	history              15 \
	knormThreshold       0 \
	energyDiffThreshold  1e-08 \
	nEnergyDiff          2 \
	alphaTstart          1 \
	alphaTmin            1e-10 \
	updateTestStepSize   yes \
	alphaTreduceFactor   0.1 \
	alphaTincreaseFactor 3 \
	nAlphaAdjustMax      3 \
	wolfeEnergy          0.0001 \
	wolfeGradient        0.9 \
	fdTest               no
exchange-regularization WignerSeitzTruncated
fluid LinearPCM 298.000000 1.013250
fluid-anion F- 1 MeanFieldLJ \
	epsBulk 1 \
	pMol 0 \
	epsInf 1 \
	Pvap 0 \
	sigmaBulk 0 \
	Rvdw 2.24877 \
	Res 0 \
	tauNuc 343133
fluid-cation Na+ 1 MeanFieldLJ \
	epsBulk 1 \
	pMol 0 \
	epsInf 1 \
	Pvap 0 \
	sigmaBulk 0 \
	Rvdw 2.19208 \
	Res 0 \
	tauNuc 343133
fluid-ex-corr lda-TF lda-PZ
fluid-gummel-loop 10 1.000000e-05
fluid-minimize  \
	dirUpdateScheme      PolakRibiere \
	linminMethod         DirUpdateRecommended \
	nIterations          400 \
	history              15 \
	knormThreshold       1e-11 \
	energyDiffThreshold  0 \
	nEnergyDiff          2 \
	alphaTstart          1 \
	alphaTmin            1e-10 \
	updateTestStepSize   yes \
	alphaTreduceFactor   0.1 \
	alphaTincreaseFactor 3 \
	nAlphaAdjustMax      6 \
	wolfeEnergy          0.0001 \
	wolfeGradient        0.9 \
	fdTest               no
fluid-solvent H2O 55.338 ScalarEOS \
	epsBulk 78.4 \
	pMol 0.92466 \
	epsInf 1.77 \
	Pvap 1.06736e-10 \
	sigmaBulk 4.62e-05 \
	Rvdw 2.61727 \
	Res 1.42 \
	tauNuc 343133 \
	poleEl 15 7 1
forces-output-coords Positions
initial-state NbTe2.$VAR
ion V   0.000059893049330  -0.000042639315134   0.501390150502338 1
ion V   0.249007736172540  -0.000269818709042   0.501183307970414 1
ion V   0.505399567371708   0.010830046706336   0.500942888694621 1
ion V   0.755857014630947   0.010801288594916   0.500995420816424 1
ion V  -0.010613583031146   0.244359831033644   0.501040672016598 1
ion V   0.249082181221619   0.247797773447599   0.500551334174016 1
ion V   0.504887589139623   0.244253333931106   0.500970295696906 1
ion V   0.750004473431064   0.250200188753364   0.500300327776883 1
ion V  -0.010708095353182   0.494757046779308   0.500952219185188 1
ion V   0.216579261493138   0.483082676225785   0.502879464369954 1
ion V   0.516990983442690   0.483166359325640   0.502907743531225 1
ion V   0.755874318336970   0.495249535623251   0.500977946128076 1
ion V   0.000327596579384   0.751010421908564   0.501169647599229 1
ion V   0.248998777915723   0.750968535299404   0.500214636758958 1
ion V   0.517083824008780   0.783593555038271   0.502808357243609 1
ion V   0.752346936630892   0.750968671075438   0.500489614970132 1
ion Se   0.166197390034389   0.082449844612229   0.589292406840869 1
ion Se   0.082504064283707   0.166060088732860   0.414581793023401 1
ion Se   0.417287364762746   0.083491726204904   0.590139878404671 1
ion Se   0.333405344869928   0.165808871591779   0.414439101847145 1
ion Se   0.668598974584160   0.087272872725116   0.589847753633490 1
ion Se   0.583813244147026   0.166935481901442   0.409410141615940 1
ion Se   0.916340781013878   0.083750553760406   0.590470250524690 1
ion Se   0.833198055402650   0.167025166574163   0.409504108873437 1
ion Se   0.160284914182974   0.328190000074662   0.589936988160768 1
ion Se   0.074034608592919   0.411951612459293   0.409438896697108 1
ion Se   0.417999340504819   0.328142419230723   0.589942950453447 1
ion Se   0.334704747568926   0.419156995158242   0.421400865960392 1
ion Se   0.668602538769943   0.331515375750440   0.589774571370426 1
ion Se   0.588076922304647   0.411993557525697   0.409440895684793 1
ion Se   0.912860885342906   0.331551374972221   0.589879155285513 1
ion Se   0.833193227120934   0.416304426143383   0.409404363277876 1
ion Se   0.160415121288858   0.582169104797259   0.589773732906900 1
ion Se   0.082409461789375   0.666586093751514   0.414463757441914 1
ion Se   0.416876071494359   0.583331479946062   0.564736187784714 1
ion Se   0.334660783464245   0.665387825699040   0.421269648968893 1
ion Se   0.672055517719084   0.582187886065165   0.589931047562659 1
ion Se   0.580959633155570   0.665406370072625   0.421364634595728 1
ion Se   0.916616074075907   0.582817022992847   0.590164596394461 1
ion Se   0.834280329055776   0.666703794672685   0.414370540475809 1
ion Se   0.166360401794560   0.833736977253467   0.589008434590992 1
ion Se   0.083169456485065   0.916912340515670   0.413588943724357 1
ion Se   0.417916687569687   0.839698528883418   0.589679898569105 1
ion Se   0.333476061344308   0.917634838888272   0.414507422588415 1
ion Se   0.671942441250201   0.839854462948236   0.589844295196840 1
ion Se   0.588185743430393   0.926147353863338   0.409392879034951 1
ion Se   0.917616394755487   0.833876709952818   0.589287761134662 1
ion Se   0.834093309553367   0.917615811144607   0.414526653753997 1
ion H   0.416795949247125   0.583526452416971   0.647051393187066 1
ion-species GBRV/$ID_pbe.uspp
ion-width Ecut
ionic-minimize  \
	dirUpdateScheme      L-BFGS \
	linminMethod         DirUpdateRecommended \
	nIterations          500 \
	history              15 \
	knormThreshold       0.0001 \
	energyDiffThreshold  1e-06 \
	nEnergyDiff          2 \
	alphaTstart          1 \
	alphaTmin            1e-10 \
	updateTestStepSize   yes \
	alphaTreduceFactor   0.1 \
	alphaTincreaseFactor 3 \
	nAlphaAdjustMax      3 \
	wolfeEnergy          0.0001 \
	wolfeGradient        0.9 \
	fdTest               no
kpoint   0.000000000000   0.000000000000   0.000000000000  1.00000000000000
kpoint-folding 3 3 1 
latt-move-scale 1 1 1
latt-scale 1.88973 1.88973 1.88973 
lattice Triclinic 13.253 13.2529 18.1801 90 90 120
lattice-minimize  \
	dirUpdateScheme      L-BFGS \
	linminMethod         DirUpdateRecommended \
	nIterations          0 \
	history              15 \
	knormThreshold       0 \
	energyDiffThreshold  1e-06 \
	nEnergyDiff          2 \
	alphaTstart          1 \
	alphaTmin            1e-10 \
	updateTestStepSize   yes \
	alphaTreduceFactor   0.1 \
	alphaTincreaseFactor 3 \
	nAlphaAdjustMax      3 \
	wolfeEnergy          0.0001 \
	wolfeGradient        0.9 \
	fdTest               no
lcao-params -1 1e-06 0.0073499
pcm-variant CANDLE
spintype z-spin
subspace-rotation-factor 1 yes
symmetries automatic
symmetry-threshold 0.0001
target-mu -0.171252 no




---------- Setting up symmetries ----------

Found 24 point-group symmetries of the bravais lattice
Found 1 space-group symmetries with basis
Applied RMS atom displacement 0 bohrs to make symmetries exact.

---------- Initializing the Grid ----------
R = 
[    25.0445   -12.5222          0  ]
[          0     21.689          0  ]
[          0          0    34.3554  ]
unit cell volume = 18661.6
G =
[    0.25088   0.144846         -0  ]
[          0   0.289694          0  ]
[          0         -0   0.182888  ]
Minimum fftbox size, Smin = [  104  104  140  ]
Chosen fftbox size, S = [  108  108  140  ]

---------- Exchange Correlation functional ----------
Initalized PBE GGA exchange.
Initalized PBE GGA correlation.

---------- Setting up pseudopotentials ----------
Width of ionic core gaussian charges (only for fluid interactions / plotting) set to 0.397384

Reading pseudopotential file '/home/guoxy/vasp/jdftx-1.5.0/build/pseudopotentials/GBRV/v_pbe.uspp':
  Title: V.  Created by USPP 7.3.6 on 31-3-15
  Reference state energy: -72.228583.  13 valence electrons in orbitals:
    |300>  occupation: 2  eigenvalue: -2.581040
    |310>  occupation: 6  eigenvalue: -1.618497
    |400>  occupation: 2  eigenvalue: -0.172800
    |320>  occupation: 3  eigenvalue: -0.189802
  lMax: 2  lLocal: 3  QijEcut: 6
  6 projectors sampled on a log grid with 593 points:
    l: 0  eig: -2.581041  rCut: 1.5
    l: 0  eig: -0.172801  rCut: 1.5
    l: 1  eig: -1.618497  rCut: 1.6
    l: 1  eig: 0.150000  rCut: 1.6
    l: 2  eig: -0.189802  rCut: 1.7
    l: 2  eig: 0.150000  rCut: 1.7
  Partial core density with radius 0.8
  Transforming core density to a uniform radial grid of dG=0.02 with 1504 points.
  Transforming local potential to a uniform radial grid of dG=0.02 with 1504 points.
  Transforming nonlocal projectors to a uniform radial grid of dG=0.02 with 432 points.
  Transforming density augmentations to a uniform radial grid of dG=0.02 with 1504 points.
  Transforming atomic orbitals to a uniform radial grid of dG=0.02 with 432 points.
  Core radius for overlap checks: 1.80 bohrs.

Reading pseudopotential file '/home/guoxy/vasp/jdftx-1.5.0/build/pseudopotentials/GBRV/se_pbe.uspp':
  Title: Se.  Created by USPP 7.3.6 on 14-9-2013
  Reference state energy: -21.672887.  6 valence electrons in orbitals:
    |400>  occupation: 2  eigenvalue: -0.635284
    |410>  occupation: 4  eigenvalue: -0.239295
  lMax: 2  lLocal: 3  QijEcut: 5
  6 projectors sampled on a log grid with 625 points:
    l: 0  eig: -0.635278  rCut: 1.5
    l: 0  eig: 0.500000  rCut: 1.5
    l: 1  eig: -0.239295  rCut: 1.5
    l: 1  eig: 0.500000  rCut: 1.5
    l: 2  eig: 0.000000  rCut: 1.8
    l: 2  eig: 1.000000  rCut: 1.8
  Partial core density with radius 1.2
  Transforming core density to a uniform radial grid of dG=0.02 with 1504 points.
  Transforming local potential to a uniform radial grid of dG=0.02 with 1504 points.
  Transforming nonlocal projectors to a uniform radial grid of dG=0.02 with 432 points.
  Transforming density augmentations to a uniform radial grid of dG=0.02 with 1504 points.
  Transforming atomic orbitals to a uniform radial grid of dG=0.02 with 432 points.
  Core radius for overlap checks: 1.80 bohrs.

Reading pseudopotential file '/home/guoxy/vasp/jdftx-1.5.0/build/pseudopotentials/GBRV/h_pbe.uspp':
  Title: H.  Created by USPP 7.3.6 on 2-4-15
  Reference state energy: -0.458849.  1 valence electrons in orbitals:
    |100>  occupation: 1  eigenvalue: -0.238595
  lMax: 0  lLocal: 1  QijEcut: 6
  2 projectors sampled on a log grid with 395 points:
    l: 0  eig: -0.238595  rCut: 1.2
    l: 0  eig: 1.000000  rCut: 1.2
  Transforming local potential to a uniform radial grid of dG=0.02 with 1504 points.
  Transforming nonlocal projectors to a uniform radial grid of dG=0.02 with 432 points.
  Transforming density augmentations to a uniform radial grid of dG=0.02 with 1504 points.
  Transforming atomic orbitals to a uniform radial grid of dG=0.02 with 432 points.
  Core radius for overlap checks: 1.20 bohrs.

Initialized 3 species with 49 total atoms.

Folded 1 k-points by 3x3x1 to 9 k-points.

---------- Setting up k-points, bands, fillings ----------
Adding inversion symmetry to k-mesh for non-inversion-symmetric unit cell.
Reduced to 5 k-points under symmetry. 
Computing the number of bands and number of electrons
Calculating initial fillings.
nElectrons: 401.000000   nBands: 289   nStates: 10

----- Setting up reduced wavefunction bases (one per k-point) -----
average nbasis = 79749.000 , ideal nbasis = 79723.758

---------- Setting up coulomb interaction ----------
Fluid mode embedding: using embedded box, but periodic Coulomb kernel.
(Fluid response is responsible for (approximate) separation between periodic images.)
Setting up double-sized grid for truncated Coulomb potentials:
R = 
[    25.0445   -12.5222          0  ]
[          0     21.689          0  ]
[          0          0    68.7109  ]
unit cell volume = 37323.2
G =
[    0.25088   0.144846         -0  ]
[          0   0.289694          0  ]
[          0         -0  0.0914439  ]
Chosen fftbox size, S = [  108  108  280  ]
Integer grid location selected as the embedding center:
   Grid: [  54  54  70  ]
   Lattice: [  0.5  0.5  0.5  ]
   Cartesian: [  6.26118  10.8445  17.1777  ]
Constructing Wigner-Seitz cell: 8 faces (6 quadrilaterals, 2 hexagons)
Range-separation parameter for embedded mesh potentials due to point charges: 0.624948 bohrs.

Initializing van der Waals corrections
	NOTE: vdW corrections apply only for interactions with fluid.
	 V:  C6:  187.33 Eh-a0^6  R0: 2.952 a0
	Se:  C6:  219.24 Eh-a0^6  R0: 3.347 a0
	 H:  C6:    2.43 Eh-a0^6  R0: 1.892 a0

---------- Setting up ewald sum ----------
Optimum gaussian width for ewald sums = 6.969532 bohr.
Real space sum over 605 unit cells with max indices [  5  5  2  ]
Reciprocal space sum over 7425 terms with max indices [  7  7  16  ]

---------- Allocating electronic variables ----------
Initializing wave functions:  linear combination of atomic orbitals
V pseudo-atom occupations:   s ( 2 0 )  p ( 6 )  d ( 5 )
Se pseudo-atom occupations:   s ( 2 )  p ( 4 )
H pseudo-atom occupations:   s ( 1 )
	FillingsUpdate:  mu: -0.171251800  nElectrons: 401.000000  magneticMoment: [ Abs: 0.98816  Tot: +0.98675 ]
LCAOMinimize: Iter:   0  G: -1131.3007215838581487  |grad|_K:  1.290e-02  alpha:  1.000e+00
	FillingsUpdate:  mu: -0.171251800  nElectrons: 401.000000  magneticMoment: [ Abs: 1.19604  Tot: +0.71009 ]
LCAOMinimize: Iter:   1  G: -1258.5593699754633690  |grad|_K:  2.427e-02  alpha:  7.694e-01  linmin:  5.752e-02  cgtest: -5.481e-01  t[s]:    105.71
LCAOMinimize: 	Bad step direction: g.d > 0.
LCAOMinimize: 	Undoing step.
LCAOMinimize: 	Step failed: resetting search direction.
	FillingsUpdate:  mu: -0.171251800  nElectrons: 401.000000  magneticMoment: [ Abs: 1.19604  Tot: +0.71009 ]
LCAOMinimize: Iter:   2  G: -1258.5593699754633690  |grad|_K:  2.427e-02  alpha:  0.000e+00
	FillingsUpdate:  mu: -0.171251800  nElectrons: 401.000000  magneticMoment: [ Abs: 0.70874  Tot: +0.23314 ]
LCAOMinimize: Iter:   3  G: -1302.2184202108046520  |grad|_K:  8.522e-03  alpha:  2.736e-01  linmin: -3.895e-02  cgtest:  8.608e-01  t[s]:    160.96
LCAOMinimize: Encountered beta<0, resetting CG.
LCAOMinimize: 	Wrong curvature in test step, increasing alphaT to 8.207033e-01.
	FillingsUpdate:  mu: -0.171251800  nElectrons: 401.000000  magneticMoment: [ Abs: 0.99405  Tot: +0.97434 ]
LCAOMinimize: Iter:   4  G: -1342.7267564699386639  |grad|_K:  1.553e-02  alpha: -9.603e-02  linmin: -8.575e-02  cgtest:  1.496e-01  t[s]:    193.16
LCAOMinimize: 	Step increased G by 3.467170e+02, reducing alpha to 3.427812e-02.
LCAOMinimize: 	Step increased G by 1.075549e+02, reducing alpha to 3.427812e-03.
	FillingsUpdate:  mu: -0.171251800  nElectrons: 401.000000  magneticMoment: [ Abs: 0.99409  Tot: +0.97197 ]
LCAOMinimize: Iter:   5  G: -1345.4959837305486872  |grad|_K:  1.647e-02  alpha:  3.428e-03  linmin: -1.047e-01  cgtest:  9.180e-01  t[s]:    272.55
LCAOMinimize: 	Wrong curvature in test step, increasing alphaT to 1.028344e-02.
	FillingsUpdate:  mu: -0.171251800  nElectrons: 401.000000  magneticMoment: [ Abs: 1.01024  Tot: +0.98809 ]
LCAOMinimize: Iter:   6  G: -1346.7337020765801299  |grad|_K:  1.624e-02  alpha: -1.137e-01  linmin: -1.609e-01  cgtest:  9.660e-01  t[s]:    304.52
LCAOMinimize: 	Step increased G by 3.053394e+01, reducing alpha to 2.418913e-02.
	FillingsUpdate:  mu: -0.171251800  nElectrons: 401.000000  magneticMoment: [ Abs: 1.10107  Tot: +1.08029 ]
LCAOMinimize: Iter:   7  G: -1351.9128622049140631  |grad|_K:  1.326e-02  alpha:  2.419e-02  linmin: -1.809e-01  cgtest:  8.510e-01  t[s]:    360.27
LCAOMinimize: Encountered beta<0, resetting CG.
LCAOMinimize: 	Predicted alpha/alphaT>3.000000, increasing alphaT to 7.256738e-02.
LCAOMinimize: 	Predicted alpha/alphaT>3.000000, increasing alphaT to 2.177021e-01.
	FillingsUpdate:  mu: -0.171251800  nElectrons: 401.000000  magneticMoment: [ Abs: 1.00071  Tot: +0.86656 ]
LCAOMinimize: Iter:   8  G: -1366.6968672108432656  |grad|_K:  1.283e-02  alpha:  1.183e-01  linmin: -7.366e-02  cgtest:  2.033e-01  t[s]:    411.30
	FillingsUpdate:  mu: -0.171251800  nElectrons: 401.000000  magneticMoment: [ Abs: 1.09474  Tot: +0.93641 ]
LCAOMinimize: Iter:   9  G: -1372.4296730130695323  |grad|_K:  1.180e-02  alpha:  3.208e-02  linmin: -1.335e-01  cgtest:  5.965e-01  t[s]:    443.58
LCAOMinimize: 	Predicted alpha/alphaT>3.000000, increasing alphaT to 9.625366e-02.
	FillingsUpdate:  mu: -0.171251800  nElectrons: 401.000000  magneticMoment: [ Abs: 1.17759  Tot: +1.02267 ]
LCAOMinimize: Iter:  10  G: -1377.6658562801333119  |grad|_K:  8.207e-03  alpha:  3.790e-02  linmin: -1.306e-01  cgtest:  3.396e-01  t[s]:    485.25
LCAOMinimize: 	Predicted alpha/alphaT>3.000000, increasing alphaT to 1.136940e-01.
	FillingsUpdate:  mu: -0.171251800  nElectrons: 401.000000  magneticMoment: [ Abs: 1.19591  Tot: +0.99434 ]
LCAOMinimize: Iter:  11  G: -1380.9600415352078926  |grad|_K:  9.892e-03  alpha:  7.461e-02  linmin:  1.618e-03  cgtest:  1.693e-01  t[s]:    526.69
	FillingsUpdate:  mu: -0.171251800  nElectrons: 401.000000  magneticMoment: [ Abs: 1.22028  Tot: +1.01336 ]
LCAOMinimize: Iter:  12  G: -1381.5971324064407781  |grad|_K:  8.872e-03  alpha:  8.753e-03  linmin: -6.706e-02  cgtest:  9.642e-01  t[s]:    559.15
LCAOMinimize: Encountered beta<0, resetting CG.
LCAOMinimize: 	Predicted alpha/alphaT>3.000000, increasing alphaT to 2.625858e-02.
	FillingsUpdate:  mu: -0.171251800  nElectrons: 401.000000  magneticMoment: [ Abs: 1.25237  Tot: +1.03714 ]
LCAOMinimize: Iter:  13  G: -1383.0635808764375270  |grad|_K:  5.078e-03  alpha:  4.128e-02  linmin: -9.405e-02  cgtest:  1.831e-02  t[s]:    600.58
LCAOMinimize: 	Wrong curvature in test step, increasing alphaT to 1.238420e-01.
	FillingsUpdate:  mu: -0.171251800  nElectrons: 401.000000  magneticMoment: [ Abs: 1.26303  Tot: +1.04068 ]
LCAOMinimize: Iter:  14  G: -1384.2818952868299220  |grad|_K:  4.152e-03  alpha: -1.289e-01  linmin: -2.795e-01  cgtest:  6.507e-01  t[s]:    632.56
LCAOMinimize: 	Step increased G by 5.792217e+00, reducing alpha to 1.583180e-02.
	FillingsUpdate:  mu: -0.171251800  nElectrons: 401.000000  magneticMoment: [ Abs: 1.26321  Tot: +1.03808 ]
LCAOMinimize: Iter:  15  G: -1384.5494178729461510  |grad|_K:  2.835e-03  alpha:  1.583e-02  linmin: -3.825e-01  cgtest:  9.038e-01  t[s]:    688.42
LCAOMinimize: Encountered beta<0, resetting CG.
LCAOMinimize: 	Predicted alpha/alphaT>3.000000, increasing alphaT to 4.749539e-02.
	FillingsUpdate:  mu: -0.171251800  nElectrons: 401.000000  magneticMoment: [ Abs: 1.25965  Tot: +1.02818 ]
LCAOMinimize: Iter:  16  G: -1384.7139361963218107  |grad|_K:  8.567e-04  alpha:  4.921e-02  linmin:  2.041e-01  cgtest: -3.579e-01  t[s]:    730.08
	FillingsUpdate:  mu: -0.171251800  nElectrons: 401.000000  magneticMoment: [ Abs: 1.26665  Tot: +1.02254 ]
LCAOMinimize: Iter:  17  G: -1384.7284983654540156  |grad|_K:  7.790e-04  alpha:  7.131e-02  linmin: -1.428e-02  cgtest:  5.257e-01  t[s]:    762.61
	FillingsUpdate:  mu: -0.171251800  nElectrons: 401.000000  magneticMoment: [ Abs: 1.27264  Tot: +1.01641 ]
LCAOMinimize: Iter:  18  G: -1384.7420543975244982  |grad|_K:  3.298e-04  alpha:  5.210e-02  linmin:  9.505e-03  cgtest: -1.665e-01  t[s]:    795.69
LCAOMinimize: 	Predicted alpha/alphaT>3.000000, increasing alphaT to 1.562871e-01.
	FillingsUpdate:  mu: -0.171251800  nElectrons: 401.000000  magneticMoment: [ Abs: 1.28057  Tot: +0.99253 ]
LCAOMinimize: Iter:  19  G: -1384.7516580517083185  |grad|_K:  2.594e-04  alpha:  2.085e-01  linmin: -2.576e-02  cgtest:  1.744e-01  t[s]:    837.12
	FillingsUpdate:  mu: -0.171251800  nElectrons: 401.000000  magneticMoment: [ Abs: 1.28488  Tot: +0.98805 ]
LCAOMinimize: Iter:  20  G: -1384.7531505453978298  |grad|_K:  2.123e-04  alpha:  6.005e-02  linmin: -2.703e-02  cgtest:  3.648e-02  t[s]:    869.32
	FillingsUpdate:  mu: -0.171251800  nElectrons: 401.000000  magneticMoment: [ Abs: 1.29138  Tot: +0.97292 ]
LCAOMinimize: Iter:  21  G: -1384.7556368320388174  |grad|_K:  1.680e-04  alpha:  1.080e-01  linmin: -5.242e-02  cgtest:  1.541e-01  t[s]:    901.24
	FillingsUpdate:  mu: -0.171251800  nElectrons: 401.000000  magneticMoment: [ Abs: 1.29444  Tot: +0.96590 ]
LCAOMinimize: Iter:  22  G: -1384.7564788535335083  |grad|_K:  1.045e-04  alpha:  6.185e-02  linmin: -2.054e-02  cgtest: -2.650e-01  t[s]:    933.83
	FillingsUpdate:  mu: -0.171251800  nElectrons: 401.000000  magneticMoment: [ Abs: 1.29717  Tot: +0.95898 ]
LCAOMinimize: Iter:  23  G: -1384.7568365712259038  |grad|_K:  7.232e-05  alpha:  6.803e-02  linmin: -8.628e-02  cgtest:  5.960e-01  t[s]:    966.00
	FillingsUpdate:  mu: -0.171251800  nElectrons: 401.000000  magneticMoment: [ Abs: 1.29790  Tot: +0.95763 ]
LCAOMinimize: Iter:  24  G: -1384.7569002133247977  |grad|_K:  3.583e-05  alpha:  3.736e-02  linmin: -3.549e-01  cgtest:  5.810e-01  t[s]:    998.79
LCAOMinimize: Encountered beta<0, resetting CG.
	FillingsUpdate:  mu: -0.171251800  nElectrons: 401.000000  magneticMoment: [ Abs: 1.29847  Tot: +0.95664 ]
LCAOMinimize: Iter:  25  G: -1384.7569157412540335  |grad|_K:  3.358e-05  alpha:  3.289e-02  linmin: -4.249e-01  cgtest:  9.883e-01  t[s]:   1031.54
LCAOMinimize: Encountered beta<0, resetting CG.
	FillingsUpdate:  mu: -0.171251800  nElectrons: 401.000000  magneticMoment: [ Abs: 1.29900  Tot: +0.95567 ]
LCAOMinimize: Iter:  26  G: -1384.7569304618884871  |grad|_K:  3.198e-05  alpha:  3.194e-02  linmin: -4.275e-01  cgtest:  9.989e-01  t[s]:   1064.22
LCAOMinimize: Encountered beta<0, resetting CG.
	FillingsUpdate:  mu: -0.171251800  nElectrons: 401.000000  magneticMoment: [ Abs: 1.29949  Tot: +0.95483 ]
LCAOMinimize: Iter:  27  G: -1384.7569417910781340  |grad|_K:  3.066e-05  alpha:  2.908e-02  linmin: -4.282e-01  cgtest:  9.995e-01  t[s]:   1096.54
LCAOMinimize: Encountered beta<0, resetting CG.
	FillingsUpdate:  mu: -0.171251800  nElectrons: 401.000000  magneticMoment: [ Abs: 1.29991  Tot: +0.95411 ]
LCAOMinimize: Iter:  28  G: -1384.7569503606398484  |grad|_K:  2.960e-05  alpha:  2.531e-02  linmin: -4.284e-01  cgtest:  9.997e-01  t[s]:   1128.96
LCAOMinimize: Encountered beta<0, resetting CG.
	FillingsUpdate:  mu: -0.171251800  nElectrons: 401.000000  magneticMoment: [ Abs: 1.30027  Tot: +0.95353 ]
LCAOMinimize: Iter:  29  G: -1384.7569567168209232  |grad|_K:  2.876e-05  alpha:  2.122e-02  linmin: -4.285e-01  cgtest:  9.998e-01  t[s]:   1161.50
LCAOMinimize: Encountered beta<0, resetting CG.
	FillingsUpdate:  mu: -0.171251800  nElectrons: 401.000000  magneticMoment: [ Abs: 1.30055  Tot: +0.95307 ]
LCAOMinimize: Iter:  30  G: -1384.7569613884068076  |grad|_K:  2.811e-05  alpha:  1.728e-02  linmin: -4.285e-01  cgtest:  9.999e-01  t[s]:   1193.79
LCAOMinimize: Encountered beta<0, resetting CG.
LCAOMinimize: None of the convergence criteria satisfied after 30 iterations.
----- createFluidSolver() ----- (Fluid-side solver setup)
   Initializing fluid molecule 'H2O'
     Initializing site 'O'
       Electron density: proportional to exp(-r/0.36935)*erfc((r-0.51523)/0.36823) with norm 6.826
       Charge density: gaussian nuclear width 0.478731 with net site charge 0.826
       Polarizability: cuspless exponential with width 0.32 and norm 3.73
       Hard sphere radius: 2.57003 bohrs
       Positions in reference frame:
         [ +0.000000 +0.000000 +0.000000 ]
     Initializing site 'H'
       Electron density: proportional to exp(-r/0.34641)*erfc((r-0)/0.390882) with norm 0.587
       Charge density: gaussian nuclear width 0.377945 with net site charge -0.413
       Polarizability: cuspless exponential with width 0.39 and norm 3.3
       Positions in reference frame:
         [ +0.000000 -1.441945 +1.122523 ]
         [ +0.000000 +1.441945 +1.122523 ]
     Net charge: 0   dipole magnitude: 0.927204
     Initializing spherical shell mfKernel with radius 2.61727 Bohr
     deltaS corrections:
       site 'O': -7.54299
       site 'H': -6.83917
   Initializing fluid molecule 'Na+'
     Initializing site 'Na'
       Electron density: proportional to exp(-r/0.19682)*erfc((r-0.71491)/0.41314) with norm 8.1383
       Charge density: gaussian nuclear width 0.365347 with net site charge -1
       Hard sphere radius: 1.86327 bohrs
       Positions in reference frame:
         [ +0.000000 +0.000000 +0.000000 ]
     Net charge: -1   dipole magnitude: 0
     Initializing gaussian mfKernel with width: 1.55004 Bohr
     deltaS corrections:
       site 'Na': -22.3555
   Initializing fluid molecule 'F-'
     Initializing site 'F'
       Electron density: proportional to exp(-r/0.38886)*erfc((r-0)/0.438782) with norm 8
       Charge density: gaussian nuclear width 0.374796 with net site charge 1
       Hard sphere radius: 2.39995 bohrs
       Positions in reference frame:
         [ +0.000000 +0.000000 +0.000000 ]
     Net charge: 1   dipole magnitude: 0
     Initializing gaussian mfKernel with width: 1.59012 Bohr
     deltaS corrections:
       site 'F': -9.04335

Correction to mu due to finite nuclear width = -0.0106602
   Cavity determined by nc: 0.00142 and sigma: 0.707107
   Nonlocal vdW cavity from gaussian model electron density with norm = 8 and sigma = 0.993594 bohr
   Charge asymmetry in cavity with sensitivity pCavity = 36.5 e-bohr/Eh
   Electrostatic cavity expanded by eta = 1.46 bohrs
   Weighted density cavitation model constrained by Nbulk: 0.0049383 bohr^-3, Pvap: 3.14029 kPa, Rvdw: 2.61727 bohr and sigmaBulk: 4.62e-05 Eh/bohr^2 at T: 298 K.
   Weighted density dispersion model using vdW pair potentials with single solvent site with sqrtC6eff: 0.77 SI.


---- Citations for features of the code used in this run ----

   Software package:
      R. Sundararaman, K. Letchworth-Weaver, K.A. Schwarz, D. Gunceler, Y. Ozhabes and T.A. Arias, 'JDFTx: software for joint density-functional theory', SoftwareX 6, 278 (2017)

   gga-PBE exchange-correlation functional:
      J.P. Perdew, K. Burke and M. Ernzerhof, Phys. Rev. Lett. 77, 3865 (1996)

   Pseudopotentials:
      KF Garrity, JW Bennett, KM Rabe and D Vanderbilt, Comput. Mater. Sci. 81, 446 (2014)

   Truncated Coulomb potentials:
      R. Sundararaman and T.A. Arias, Phys. Rev. B 87, 165122 (2013)

   Van der Waals correction pair-potentials:
      S. Grimme, J. Comput. Chem. 27, 1787 (2006)

   Charge-asymmetric nonlocally-determined local-electric (CANDLE) solvation model:
      R. Sundararaman and W.A. Goddard III, J. Chem. Phys. 142, 064107 (2015)

   Total energy minimization with Auxiliary Hamiltonian:
      C. Freysoldt, S. Boeck, and J. Neugebauer, Phys. Rev. B 79, 241103(R) (2009)

   Grand-canonical (fixed-potential) DFT:
      R. Sundararaman, W. A. Goddard III and T. A. Arias, J. Chem. Phys. 146, 114104 (2017)

This list may not be complete. Please suggest additional citations or
report any other bugs at https://github.com/shankar1729/jdftx/issues

Initialization completed successfully at t[s]:   1199.69

Fluid solver invoked on fresh (partially random / LCAO) wavefunctions
Running a vacuum solve first:

-------- Initial electronic minimization -----------
	FillingsUpdate:  mu: -0.143832791  nElectrons: 401.000000  magneticMoment: [ Abs: 1.30055  Tot: +0.95307 ]
ElecMinimize: Iter:   0  G: -1384.850255706215421  |grad|_K:  1.009e-04  alpha:  1.000e+00
	FillingsUpdate:  mu: -0.107382776  nElectrons: 401.000000  magneticMoment: [ Abs: 1.30135  Tot: +0.93718 ]
	SubspaceRotationAdjust: set factor to 0.998
ElecMinimize: Iter:   1  G: -1386.263980622912641  |grad|_K:  6.968e-05  alpha:  6.030e-01  linmin:  7.342e-07  t[s]:   1271.92
	FillingsUpdate:  mu: -0.012892890  nElectrons: 401.000000  magneticMoment: [ Abs: 1.31714  Tot: +0.91269 ]
	SubspaceRotationAdjust: set factor to 0.568
ElecMinimize: Iter:   2  G: -1386.669919360296717  |grad|_K:  8.412e-05  alpha:  3.550e-01  linmin: -4.660e-06  t[s]:   1315.68
	FillingsUpdate:  mu: -0.088172863  nElectrons: 401.000000  magneticMoment: [ Abs: 1.29050  Tot: +0.89967 ]
	SubspaceRotationAdjust: set factor to 0.342
ElecMinimize: Iter:   3  G: -1386.895657713242144  |grad|_K:  6.484e-05  alpha:  1.448e-01  linmin:  1.864e-05  t[s]:   1359.53
	FillingsUpdate:  mu: -0.098418118  nElectrons: 401.000000  magneticMoment: [ Abs: 1.26693  Tot: +0.87436 ]
	SubspaceRotationAdjust: set factor to 0.193
ElecMinimize: Iter:   4  G: -1386.963553514849991  |grad|_K:  2.557e-05  alpha:  7.452e-02  linmin:  9.080e-06  t[s]:   1403.09
ElecMinimize: 	Predicted alpha/alphaT>3.000000, increasing alphaT to 2.235527e-01.
	FillingsUpdate:  mu: -0.115455123  nElectrons: 401.000000  magneticMoment: [ Abs: 1.23674  Tot: +0.84095 ]
	SubspaceRotationAdjust: set factor to 0.144
ElecMinimize: Iter:   5  G: -1387.035626741452461  |grad|_K:  2.598e-05  alpha:  4.807e-01  linmin: -3.200e-05  t[s]:   1458.91
	FillingsUpdate:  mu: -0.102946630  nElectrons: 401.000000  magneticMoment: [ Abs: 1.22833  Tot: +0.83037 ]
	SubspaceRotationAdjust: set factor to 0.171
ElecMinimize: Iter:   6  G: -1387.080089046001149  |grad|_K:  1.447e-05  alpha:  2.815e-01  linmin: -2.049e-06  t[s]:   1502.52
	FillingsUpdate:  mu: -0.091239345  nElectrons: 401.000000  magneticMoment: [ Abs: 1.22390  Tot: +0.82472 ]
	SubspaceRotationAdjust: set factor to 0.149
ElecMinimize: Iter:   7  G: -1387.097514401042417  |grad|_K:  1.121e-05  alpha:  3.610e-01  linmin:  1.426e-05  t[s]:   1545.79
	FillingsUpdate:  mu: -0.087394829  nElectrons: 401.000000  magneticMoment: [ Abs: 1.21152  Tot: +0.81350 ]
	SubspaceRotationAdjust: set factor to 0.141
ElecMinimize: Iter:   8  G: -1387.108155070090106  |grad|_K:  7.426e-06  alpha:  3.687e-01  linmin:  8.485e-07  t[s]:   1589.32
	FillingsUpdate:  mu: -0.091278787  nElectrons: 401.000000  magneticMoment: [ Abs: 1.19826  Tot: +0.80302 ]
	SubspaceRotationAdjust: set factor to 0.136
ElecMinimize: Iter:   9  G: -1387.112900120273025  |grad|_K:  5.398e-06  alpha:  3.730e-01  linmin:  1.293e-07  t[s]:   1632.94
	FillingsUpdate:  mu: -0.093275129  nElectrons: 401.000000  magneticMoment: [ Abs: 1.18592  Tot: +0.79412 ]
	SubspaceRotationAdjust: set factor to 0.125
	SubspaceRotationAdjust: resetting CG because factor has changed by 0.124864
ElecMinimize: 	State modified externally: resetting search direction.
ElecMinimize: Iter:  10  G: -1387.115467288310811  |grad|_K:  4.163e-06  alpha:  3.816e-01
	FillingsUpdate:  mu: -0.091538304  nElectrons: 401.000000  magneticMoment: [ Abs: 1.18109  Tot: +0.79091 ]
	SubspaceRotationAdjust: set factor to 0.165
ElecMinimize: Iter:  11  G: -1387.116955053309084  |grad|_K:  2.592e-06  alpha:  3.718e-01  linmin:  1.177e-08  t[s]:   1746.37
	FillingsUpdate:  mu: -0.091825322  nElectrons: 401.000000  magneticMoment: [ Abs: 1.16732  Tot: +0.78163 ]
	SubspaceRotationAdjust: set factor to 0.164
ElecMinimize: Iter:  12  G: -1387.118061747763932  |grad|_K:  2.505e-06  alpha:  7.132e-01  linmin: -2.502e-07  t[s]:   1790.03
	FillingsUpdate:  mu: -0.093449150  nElectrons: 401.000000  magneticMoment: [ Abs: 1.14833  Tot: +0.76924 ]
	SubspaceRotationAdjust: set factor to 0.154
ElecMinimize: Iter:  13  G: -1387.118835986053000  |grad|_K:  2.490e-06  alpha:  5.344e-01  linmin: -4.648e-08  t[s]:   1833.95
	FillingsUpdate:  mu: -0.093117402  nElectrons: 401.000000  magneticMoment: [ Abs: 1.11980  Tot: +0.74873 ]
	SubspaceRotationAdjust: set factor to 0.122
ElecMinimize: Iter:  14  G: -1387.119585721347903  |grad|_K:  1.972e-06  alpha:  5.235e-01  linmin:  2.380e-08  t[s]:   1877.31
	FillingsUpdate:  mu: -0.091620979  nElectrons: 401.000000  magneticMoment: [ Abs: 1.09987  Tot: +0.73541 ]
	SubspaceRotationAdjust: set factor to 0.101
ElecMinimize: Iter:  15  G: -1387.119972889070823  |grad|_K:  1.274e-06  alpha:  4.309e-01  linmin:  1.582e-07  t[s]:   1920.69
	FillingsUpdate:  mu: -0.091697554  nElectrons: 401.000000  magneticMoment: [ Abs: 1.07533  Tot: +0.71869 ]
	SubspaceRotationAdjust: set factor to 0.108
ElecMinimize: Iter:  16  G: -1387.120251431158522  |grad|_K:  1.062e-06  alpha:  7.452e-01  linmin:  6.307e-07  t[s]:   1964.59
	FillingsUpdate:  mu: -0.091579310  nElectrons: 401.000000  magneticMoment: [ Abs: 1.05551  Tot: +0.70512 ]
	SubspaceRotationAdjust: set factor to 0.11
ElecMinimize: Iter:  17  G: -1387.120403519944830  |grad|_K:  7.211e-07  alpha:  5.863e-01  linmin:  1.173e-07  t[s]:   2007.92
	FillingsUpdate:  mu: -0.091608865  nElectrons: 401.000000  magneticMoment: [ Abs: 1.03959  Tot: +0.69439 ]
	SubspaceRotationAdjust: set factor to 0.108
ElecMinimize: Iter:  18  G: -1387.120475067291864  |grad|_K:  6.036e-07  alpha:  5.962e-01  linmin:  6.299e-08  t[s]:   2051.94
	FillingsUpdate:  mu: -0.092011221  nElectrons: 401.000000  magneticMoment: [ Abs: 1.02069  Tot: +0.68173 ]
	SubspaceRotationAdjust: set factor to 0.0927
ElecMinimize: Iter:  19  G: -1387.120528462011180  |grad|_K:  3.720e-07  alpha:  6.349e-01  linmin:  1.428e-07  t[s]:   2095.76
	FillingsUpdate:  mu: -0.091956824  nElectrons: 401.000000  magneticMoment: [ Abs: 1.00577  Tot: +0.67178 ]
	SubspaceRotationAdjust: set factor to 0.0901
ElecMinimize: Iter:  20  G: -1387.120550719717130  |grad|_K:  2.777e-07  alpha:  6.969e-01  linmin: -8.278e-08  t[s]:   2139.35
	FillingsUpdate:  mu: -0.091819070  nElectrons: 401.000000  magneticMoment: [ Abs: 0.99219  Tot: +0.66270 ]
	SubspaceRotationAdjust: set factor to 0.0975
ElecMinimize: Iter:  21  G: -1387.120562409047125  |grad|_K:  2.366e-07  alpha:  6.565e-01  linmin: -9.768e-08  t[s]:   2183.23
	FillingsUpdate:  mu: -0.091955733  nElectrons: 401.000000  magneticMoment: [ Abs: 0.97554  Tot: +0.65155 ]
	SubspaceRotationAdjust: set factor to 0.104
ElecMinimize: Iter:  22  G: -1387.120571625100411  |grad|_K:  1.667e-07  alpha:  7.127e-01  linmin: -6.546e-08  t[s]:   2226.77
	FillingsUpdate:  mu: -0.092031342  nElectrons: 401.000000  magneticMoment: [ Abs: 0.96363  Tot: +0.64360 ]
	SubspaceRotationAdjust: set factor to 0.114
ElecMinimize: Iter:  23  G: -1387.120575431182488  |grad|_K:  1.241e-07  alpha:  5.930e-01  linmin:  3.824e-09  t[s]:   2270.47
	FillingsUpdate:  mu: -0.091978827  nElectrons: 401.000000  magneticMoment: [ Abs: 0.94844  Tot: +0.63337 ]
	SubspaceRotationAdjust: set factor to 0.128
ElecMinimize: Iter:  24  G: -1387.120578108156451  |grad|_K:  1.184e-07  alpha:  7.534e-01  linmin:  1.066e-09  t[s]:   2314.43
	FillingsUpdate:  mu: -0.091977725  nElectrons: 401.000000  magneticMoment: [ Abs: 0.92421  Tot: +0.61710 ]
	SubspaceRotationAdjust: set factor to 0.137
ElecMinimize: Iter:  25  G: -1387.120580913180220  |grad|_K:  1.285e-07  alpha:  8.669e-01  linmin:  1.481e-07  t[s]:   2358.20
	FillingsUpdate:  mu: -0.091974511  nElectrons: 401.000000  magneticMoment: [ Abs: 0.89255  Tot: +0.59576 ]
	SubspaceRotationAdjust: set factor to 0.138
ElecMinimize: Iter:  26  G: -1387.120583692600803  |grad|_K:  1.250e-07  alpha:  7.287e-01  linmin:  1.216e-07  t[s]:   2401.70
	FillingsUpdate:  mu: -0.091954975  nElectrons: 401.000000  magneticMoment: [ Abs: 0.85546  Tot: +0.57086 ]
	SubspaceRotationAdjust: set factor to 0.129
ElecMinimize: Iter:  27  G: -1387.120586290457368  |grad|_K:  1.330e-07  alpha:  7.208e-01  linmin:  1.757e-07  t[s]:   2445.12
	FillingsUpdate:  mu: -0.091998224  nElectrons: 401.000000  magneticMoment: [ Abs: 0.81312  Tot: +0.54236 ]
	SubspaceRotationAdjust: set factor to 0.116
ElecMinimize: Iter:  28  G: -1387.120588824194101  |grad|_K:  1.209e-07  alpha:  6.204e-01  linmin:  2.441e-08  t[s]:   2489.04
	FillingsUpdate:  mu: -0.092048787  nElectrons: 401.000000  magneticMoment: [ Abs: 0.76954  Tot: +0.51299 ]
	SubspaceRotationAdjust: set factor to 0.119
ElecMinimize: Iter:  29  G: -1387.120591097290799  |grad|_K:  1.177e-07  alpha:  6.738e-01  linmin: -1.288e-08  t[s]:   2533.31
	FillingsUpdate:  mu: -0.092006224  nElectrons: 401.000000  magneticMoment: [ Abs: 0.71487  Tot: +0.47587 ]
	SubspaceRotationAdjust: set factor to 0.132
ElecMinimize: Iter:  30  G: -1387.120593676768294  |grad|_K:  1.156e-07  alpha:  8.059e-01  linmin:  1.465e-07  t[s]:   2576.84
	FillingsUpdate:  mu: -0.092017669  nElectrons: 401.000000  magneticMoment: [ Abs: 0.64557  Tot: +0.42805 ]
	SubspaceRotationAdjust: set factor to 0.149
ElecMinimize: Iter:  31  G: -1387.120596712043607  |grad|_K:  1.252e-07  alpha:  9.836e-01  linmin: -7.277e-09  t[s]:   2620.51
	FillingsUpdate:  mu: -0.092067975  nElectrons: 401.000000  magneticMoment: [ Abs: 0.58424  Tot: +0.38354 ]
	SubspaceRotationAdjust: set factor to 0.149
ElecMinimize: Iter:  32  G: -1387.120599359063362  |grad|_K:  1.363e-07  alpha:  7.318e-01  linmin:  9.018e-08  t[s]:   2664.11
	FillingsUpdate:  mu: -0.092017906  nElectrons: 401.000000  magneticMoment: [ Abs: 0.52965  Tot: +0.33891 ]
	SubspaceRotationAdjust: set factor to 0.124
ElecMinimize: Iter:  33  G: -1387.120601888347210  |grad|_K:  1.316e-07  alpha:  5.895e-01  linmin:  1.714e-08  t[s]:   2707.62
	FillingsUpdate:  mu: -0.091982205  nElectrons: 401.000000  magneticMoment: [ Abs: 0.48172  Tot: +0.28845 ]
	SubspaceRotationAdjust: set factor to 0.115
ElecMinimize: Iter:  34  G: -1387.120604644532477  |grad|_K:  1.116e-07  alpha:  6.890e-01  linmin:  3.501e-07  t[s]:   2750.98
	FillingsUpdate:  mu: -0.092019362  nElectrons: 401.000000  magneticMoment: [ Abs: 0.46244  Tot: +0.25657 ]
	SubspaceRotationAdjust: set factor to 0.122
ElecMinimize: Iter:  35  G: -1387.120606338926336  |grad|_K:  8.348e-08  alpha:  5.894e-01  linmin: -2.005e-08  t[s]:   2794.72
	FillingsUpdate:  mu: -0.092000980  nElectrons: 401.000000  magneticMoment: [ Abs: 0.45445  Tot: +0.23528 ]
	SubspaceRotationAdjust: set factor to 0.126
ElecMinimize: Iter:  36  G: -1387.120607440263484  |grad|_K:  6.633e-08  alpha:  6.843e-01  linmin: -1.815e-07  t[s]:   2838.17
	FillingsUpdate:  mu: -0.091984748  nElectrons: 401.000000  magneticMoment: [ Abs: 0.45053  Tot: +0.22192 ]
	SubspaceRotationAdjust: set factor to 0.122
ElecMinimize: Iter:  37  G: -1387.120608112648370  |grad|_K:  6.162e-08  alpha:  6.618e-01  linmin: -7.815e-08  t[s]:   2881.87
	FillingsUpdate:  mu: -0.092001863  nElectrons: 401.000000  magneticMoment: [ Abs: 0.44777  Tot: +0.21215 ]
	SubspaceRotationAdjust: set factor to 0.118
ElecMinimize: Iter:  38  G: -1387.120608592007329  |grad|_K:  4.988e-08  alpha:  5.466e-01  linmin: -3.552e-08  t[s]:   2925.32
	FillingsUpdate:  mu: -0.092009298  nElectrons: 401.000000  magneticMoment: [ Abs: 0.44532  Tot: +0.20452 ]
	SubspaceRotationAdjust: set factor to 0.129
ElecMinimize: Iter:  39  G: -1387.120608959955234  |grad|_K:  4.083e-08  alpha:  6.404e-01  linmin: -9.061e-08  t[s]:   2968.81
	FillingsUpdate:  mu: -0.091982239  nElectrons: 401.000000  magneticMoment: [ Abs: 0.44288  Tot: +0.19879 ]
	SubspaceRotationAdjust: set factor to 0.143
ElecMinimize: Iter:  40  G: -1387.120609230321634  |grad|_K:  3.365e-08  alpha:  7.020e-01  linmin: -3.880e-08  t[s]:   3012.35
	FillingsUpdate:  mu: -0.091988210  nElectrons: 401.000000  magneticMoment: [ Abs: 0.44023  Tot: +0.19458 ]
	SubspaceRotationAdjust: set factor to 0.165
ElecMinimize: Iter:  41  G: -1387.120609426033525  |grad|_K:  2.868e-08  alpha:  7.487e-01  linmin:  2.808e-08  t[s]:   3056.23
	FillingsUpdate:  mu: -0.091988288  nElectrons: 401.000000  magneticMoment: [ Abs: 0.43732  Tot: +0.19155 ]
	SubspaceRotationAdjust: set factor to 0.17
ElecMinimize: Iter:  42  G: -1387.120609564251026  |grad|_K:  2.849e-08  alpha:  7.281e-01  linmin:  9.041e-10  t[s]:   3100.35
	FillingsUpdate:  mu: -0.091983046  nElectrons: 401.000000  magneticMoment: [ Abs: 0.43431  Tot: +0.18932 ]
	SubspaceRotationAdjust: set factor to 0.156
ElecMinimize: Iter:  43  G: -1387.120609665664460  |grad|_K:  2.959e-08  alpha:  5.410e-01  linmin:  6.660e-09  t[s]:   3144.30
	FillingsUpdate:  mu: -0.091990718  nElectrons: 401.000000  magneticMoment: [ Abs: 0.43036  Tot: +0.18700 ]
	SubspaceRotationAdjust: set factor to 0.151
ElecMinimize: Iter:  44  G: -1387.120609770174042  |grad|_K:  2.632e-08  alpha:  5.172e-01  linmin:  1.140e-08  t[s]:   3187.89
	FillingsUpdate:  mu: -0.092001742  nElectrons: 401.000000  magneticMoment: [ Abs: 0.42500  Tot: +0.18443 ]
	SubspaceRotationAdjust: set factor to 0.154
ElecMinimize: Iter:  45  G: -1387.120609885500016  |grad|_K:  2.876e-08  alpha:  7.209e-01  linmin:  1.926e-08  t[s]:   3231.89
	FillingsUpdate:  mu: -0.091992593  nElectrons: 401.000000  magneticMoment: [ Abs: 0.41780  Tot: +0.18137 ]
	SubspaceRotationAdjust: set factor to 0.157
ElecMinimize: Iter:  46  G: -1387.120610022803703  |grad|_K:  3.120e-08  alpha:  7.192e-01  linmin: -5.390e-08  t[s]:   3275.68
	FillingsUpdate:  mu: -0.091992825  nElectrons: 401.000000  magneticMoment: [ Abs: 0.40796  Tot: +0.17739 ]
	SubspaceRotationAdjust: set factor to 0.158
ElecMinimize: Iter:  47  G: -1387.120610199712701  |grad|_K:  3.667e-08  alpha:  7.870e-01  linmin:  6.142e-08  t[s]:   3319.46
	FillingsUpdate:  mu: -0.092006454  nElectrons: 401.000000  magneticMoment: [ Abs: 0.39699  Tot: +0.17283 ]
	SubspaceRotationAdjust: set factor to 0.146
ElecMinimize: Iter:  48  G: -1387.120610399211273  |grad|_K:  3.892e-08  alpha:  6.425e-01  linmin:  6.733e-08  t[s]:   3363.02
	FillingsUpdate:  mu: -0.092015358  nElectrons: 401.000000  magneticMoment: [ Abs: 0.38474  Tot: +0.16715 ]
	SubspaceRotationAdjust: set factor to 0.137
ElecMinimize: Iter:  49  G: -1387.120610646394880  |grad|_K:  4.222e-08  alpha:  7.069e-01  linmin:  3.710e-08  t[s]:   3406.52
	FillingsUpdate:  mu: -0.092000042  nElectrons: 401.000000  magneticMoment: [ Abs: 0.37446  Tot: +0.16037 ]
	SubspaceRotationAdjust: set factor to 0.136
ElecMinimize: Iter:  50  G: -1387.120610935299283  |grad|_K:  3.960e-08  alpha:  7.023e-01  linmin:  1.982e-07  t[s]:   3450.15
	FillingsUpdate:  mu: -0.092004447  nElectrons: 401.000000  magneticMoment: [ Abs: 0.37071  Tot: +0.15351 ]
	SubspaceRotationAdjust: set factor to 0.146
ElecMinimize: Iter:  51  G: -1387.120611221910849  |grad|_K:  3.575e-08  alpha:  7.931e-01  linmin:  1.139e-07  t[s]:   3493.77
	FillingsUpdate:  mu: -0.092008799  nElectrons: 401.000000  magneticMoment: [ Abs: 0.37222  Tot: +0.14816 ]
	SubspaceRotationAdjust: set factor to 0.154
ElecMinimize: Iter:  52  G: -1387.120611437777598  |grad|_K:  3.189e-08  alpha:  7.319e-01  linmin:  8.288e-09  t[s]:   3537.52
	FillingsUpdate:  mu: -0.092000976  nElectrons: 401.000000  magneticMoment: [ Abs: 0.37434  Tot: +0.14503 ]
	SubspaceRotationAdjust: set factor to 0.138
ElecMinimize: Iter:  53  G: -1387.120611557989605  |grad|_K:  2.929e-08  alpha:  5.119e-01  linmin:  1.470e-08  t[s]:   3581.10
	FillingsUpdate:  mu: -0.092001290  nElectrons: 401.000000  magneticMoment: [ Abs: 0.37663  Tot: +0.14231 ]
	SubspaceRotationAdjust: set factor to 0.13
ElecMinimize: Iter:  54  G: -1387.120611656044730  |grad|_K:  2.208e-08  alpha:  4.954e-01  linmin: -7.856e-09  t[s]:   3625.05
	FillingsUpdate:  mu: -0.092004752  nElectrons: 401.000000  magneticMoment: [ Abs: 0.37866  Tot: +0.13998 ]
	SubspaceRotationAdjust: set factor to 0.15
ElecMinimize: Iter:  55  G: -1387.120611732475481  |grad|_K:  1.877e-08  alpha:  6.790e-01  linmin:  7.710e-08  t[s]:   3668.85
	FillingsUpdate:  mu: -0.091995619  nElectrons: 401.000000  magneticMoment: [ Abs: 0.38010  Tot: +0.13820 ]
	SubspaceRotationAdjust: set factor to 0.159
ElecMinimize: Iter:  56  G: -1387.120611784593621  |grad|_K:  1.693e-08  alpha:  6.413e-01  linmin: -3.421e-08  t[s]:   3712.76
	FillingsUpdate:  mu: -0.091993972  nElectrons: 401.000000  magneticMoment: [ Abs: 0.38105  Tot: +0.13681 ]
	SubspaceRotationAdjust: set factor to 0.146
ElecMinimize: Iter:  57  G: -1387.120611820201248  |grad|_K:  1.586e-08  alpha:  5.376e-01  linmin: -3.091e-08  t[s]:   3756.49
	FillingsUpdate:  mu: -0.091995865  nElectrons: 401.000000  magneticMoment: [ Abs: 0.38175  Tot: +0.13545 ]
	SubspaceRotationAdjust: set factor to 0.141
ElecMinimize: Iter:  58  G: -1387.120611850287787  |grad|_K:  1.283e-08  alpha:  5.187e-01  linmin: -2.559e-08  t[s]:   3799.89
	FillingsUpdate:  mu: -0.091992707  nElectrons: 401.000000  magneticMoment: [ Abs: 0.38223  Tot: +0.13407 ]
	SubspaceRotationAdjust: set factor to 0.149
ElecMinimize: Iter:  59  G: -1387.120611876069006  |grad|_K:  1.152e-08  alpha:  6.780e-01  linmin:  8.118e-08  t[s]:   3843.69
	FillingsUpdate:  mu: -0.091986933  nElectrons: 401.000000  magneticMoment: [ Abs: 0.38246  Tot: +0.13281 ]
	SubspaceRotationAdjust: set factor to 0.154
ElecMinimize: Iter:  60  G: -1387.120611896160881  |grad|_K:  1.087e-08  alpha:  6.561e-01  linmin: -1.348e-07  t[s]:   3887.39
	FillingsUpdate:  mu: -0.091989604  nElectrons: 401.000000  magneticMoment: [ Abs: 0.38250  Tot: +0.13147 ]
	SubspaceRotationAdjust: set factor to 0.162
ElecMinimize: Iter:  61  G: -1387.120611914608162  |grad|_K:  1.101e-08  alpha:  6.743e-01  linmin: -6.991e-08  t[s]:   3930.98
	FillingsUpdate:  mu: -0.091992877  nElectrons: 401.000000  magneticMoment: [ Abs: 0.38238  Tot: +0.12984 ]
	SubspaceRotationAdjust: set factor to 0.159
ElecMinimize: Iter:  62  G: -1387.120611934148428  |grad|_K:  1.262e-08  alpha:  6.986e-01  linmin:  3.378e-08  t[s]:   3974.41
	FillingsUpdate:  mu: -0.091989753  nElectrons: 401.000000  magneticMoment: [ Abs: 0.38215  Tot: +0.12783 ]
	SubspaceRotationAdjust: set factor to 0.151
ElecMinimize: Iter:  63  G: -1387.120611956347147  |grad|_K:  1.359e-08  alpha:  6.044e-01  linmin:  4.681e-08  t[s]:   4017.91
	FillingsUpdate:  mu: -0.091990079  nElectrons: 401.000000  magneticMoment: [ Abs: 0.38177  Tot: +0.12476 ]
	SubspaceRotationAdjust: set factor to 0.152
ElecMinimize: Iter:  64  G: -1387.120611988361361  |grad|_K:  1.483e-08  alpha:  7.511e-01  linmin:  7.588e-08  t[s]:   4061.54
	FillingsUpdate:  mu: -0.091995501  nElectrons: 401.000000  magneticMoment: [ Abs: 0.38151  Tot: +0.12074 ]
	SubspaceRotationAdjust: set factor to 0.151
ElecMinimize: Iter:  65  G: -1387.120612028963478  |grad|_K:  1.671e-08  alpha:  8.000e-01  linmin:  5.398e-08  t[s]:   4105.10
	FillingsUpdate:  mu: -0.091993587  nElectrons: 401.000000  magneticMoment: [ Abs: 0.38171  Tot: +0.11626 ]
	SubspaceRotationAdjust: set factor to 0.137
ElecMinimize: Iter:  66  G: -1387.120612073254279  |grad|_K:  1.837e-08  alpha:  6.877e-01  linmin:  2.753e-08  t[s]:   4148.88
	FillingsUpdate:  mu: -0.091992997  nElectrons: 401.000000  magneticMoment: [ Abs: 0.38261  Tot: +0.11165 ]
	SubspaceRotationAdjust: set factor to 0.123
ElecMinimize: Iter:  67  G: -1387.120612118744020  |grad|_K:  1.773e-08  alpha:  5.836e-01  linmin:  2.684e-08  t[s]:   4191.94
	FillingsUpdate:  mu: -0.091998368  nElectrons: 401.000000  magneticMoment: [ Abs: 0.38454  Tot: +0.10655 ]
	SubspaceRotationAdjust: set factor to 0.123
ElecMinimize: Iter:  68  G: -1387.120612168972684  |grad|_K:  1.635e-08  alpha:  6.918e-01  linmin:  5.914e-09  t[s]:   4235.89
	FillingsUpdate:  mu: -0.091999307  nElectrons: 401.000000  magneticMoment: [ Abs: 0.38706  Tot: +0.10205 ]
	SubspaceRotationAdjust: set factor to 0.128
ElecMinimize: Iter:  69  G: -1387.120612213696404  |grad|_K:  1.522e-08  alpha:  7.246e-01  linmin:  2.900e-08  t[s]:   4279.03
	FillingsUpdate:  mu: -0.091995992  nElectrons: 401.000000  magneticMoment: [ Abs: 0.38941  Tot: +0.09860 ]
	SubspaceRotationAdjust: set factor to 0.137
ElecMinimize: Iter:  70  G: -1387.120612248696943  |grad|_K:  1.386e-08  alpha:  6.550e-01  linmin:  6.230e-08  t[s]:   4322.75
	FillingsUpdate:  mu: -0.091997237  nElectrons: 401.000000  magneticMoment: [ Abs: 0.39164  Tot: +0.09560 ]
	SubspaceRotationAdjust: set factor to 0.149
ElecMinimize: Iter:  71  G: -1387.120612280123851  |grad|_K:  1.336e-08  alpha:  7.084e-01  linmin: -7.078e-08  t[s]:   4366.18
	FillingsUpdate:  mu: -0.091998763  nElectrons: 401.000000  magneticMoment: [ Abs: 0.39341  Tot: +0.09329 ]
	SubspaceRotationAdjust: set factor to 0.151
ElecMinimize: Iter:  72  G: -1387.120612305541954  |grad|_K:  1.388e-08  alpha:  6.161e-01  linmin: -8.170e-09  t[s]:   4409.41
	FillingsUpdate:  mu: -0.091994678  nElectrons: 401.000000  magneticMoment: [ Abs: 0.39517  Tot: +0.09102 ]
	SubspaceRotationAdjust: set factor to 0.149
ElecMinimize: Iter:  73  G: -1387.120612331867960  |grad|_K:  1.329e-08  alpha:  5.916e-01  linmin: -3.842e-08  t[s]:   4452.94
	FillingsUpdate:  mu: -0.091992011  nElectrons: 401.000000  magneticMoment: [ Abs: 0.39701  Tot: +0.08863 ]
	SubspaceRotationAdjust: set factor to 0.159
ElecMinimize: Iter:  74  G: -1387.120612361532039  |grad|_K:  1.328e-08  alpha:  7.262e-01  linmin: -6.663e-08  t[s]:   4496.77
	FillingsUpdate:  mu: -0.091996006  nElectrons: 401.000000  magneticMoment: [ Abs: 0.39868  Tot: +0.08642 ]
	SubspaceRotationAdjust: set factor to 0.158
ElecMinimize: Iter:  75  G: -1387.120612391068107  |grad|_K:  1.525e-08  alpha:  7.242e-01  linmin: -1.414e-08  t[s]:   4540.80
	FillingsUpdate:  mu: -0.091992681  nElectrons: 401.000000  magneticMoment: [ Abs: 0.40029  Tot: +0.08423 ]
	SubspaceRotationAdjust: set factor to 0.141
ElecMinimize: Iter:  76  G: -1387.120612422227396  |grad|_K:  1.568e-08  alpha:  5.800e-01  linmin: -4.869e-09  t[s]:   4584.37
	FillingsUpdate:  mu: -0.091987139  nElectrons: 401.000000  magneticMoment: [ Abs: 0.40214  Tot: +0.08164 ]
	SubspaceRotationAdjust: set factor to 0.142
ElecMinimize: Iter:  77  G: -1387.120612461616929  |grad|_K:  1.600e-08  alpha:  6.939e-01  linmin:  2.465e-08  t[s]:   4628.08
	FillingsUpdate:  mu: -0.091988956  nElectrons: 401.000000  magneticMoment: [ Abs: 0.40430  Tot: +0.07857 ]
	SubspaceRotationAdjust: set factor to 0.154
ElecMinimize: Iter:  78  G: -1387.120612511219406  |grad|_K:  1.757e-08  alpha:  8.394e-01  linmin: -1.737e-08  t[s]:   4671.50
	FillingsUpdate:  mu: -0.091988539  nElectrons: 401.000000  magneticMoment: [ Abs: 0.40681  Tot: +0.07505 ]
	SubspaceRotationAdjust: set factor to 0.161
ElecMinimize: Iter:  79  G: -1387.120612571432275  |grad|_K:  2.153e-08  alpha:  8.446e-01  linmin:  4.390e-08  t[s]:   4715.11
	FillingsUpdate:  mu: -0.091986980  nElectrons: 401.000000  magneticMoment: [ Abs: 0.41026  Tot: +0.07049 ]
	SubspaceRotationAdjust: set factor to 0.159
ElecMinimize: Iter:  80  G: -1387.120612652508044  |grad|_K:  2.747e-08  alpha:  7.578e-01  linmin:  1.554e-07  t[s]:   4759.02
	FillingsUpdate:  mu: -0.091988242  nElectrons: 401.000000  magneticMoment: [ Abs: 0.41723  Tot: +0.06299 ]
	SubspaceRotationAdjust: set factor to 0.155
ElecMinimize: Iter:  81  G: -1387.120612788668723  |grad|_K:  3.593e-08  alpha:  7.848e-01  linmin:  3.323e-07  t[s]:   4802.58
	FillingsUpdate:  mu: -0.091997433  nElectrons: 401.000000  magneticMoment: [ Abs: 0.46310  Tot: +0.04972 ]
	SubspaceRotationAdjust: set factor to 0.155
ElecMinimize: Iter:  82  G: -1387.120613031828952  |grad|_K:  4.896e-08  alpha:  8.262e-01  linmin:  2.220e-06  t[s]:   4846.54
	FillingsUpdate:  mu: -0.091994847  nElectrons: 401.000000  magneticMoment: [ Abs: 0.55442  Tot: +0.02803 ]
	SubspaceRotationAdjust: set factor to 0.184
ElecMinimize: Iter:  83  G: -1387.120613414010677  |grad|_K:  6.511e-08  alpha:  7.307e-01  linmin:  3.601e-06  t[s]:   4889.77
	FillingsUpdate:  mu: -0.091989328  nElectrons: 401.000000  magneticMoment: [ Abs: 0.64614  Tot: +0.00724 ]
	SubspaceRotationAdjust: set factor to 0.212
ElecMinimize: Iter:  84  G: -1387.120613815693105  |grad|_K:  8.013e-08  alpha:  3.977e-01  linmin: -9.113e-07  t[s]:   4933.19
	FillingsUpdate:  mu: -0.091989463  nElectrons: 401.000000  magneticMoment: [ Abs: 0.64908  Tot: +0.00659 ]
	SubspaceRotationAdjust: set factor to 0.225
ElecMinimize: Iter:  85  G: -1387.120613841690329  |grad|_K:  8.258e-08  alpha:  8.358e-03  linmin: -3.103e-05  t[s]:   4976.67
ElecMinimize: 	Predicted alpha/alphaT>3.000000, increasing alphaT to 2.507398e-02.
ElecMinimize: 	Predicted alpha/alphaT>3.000000, increasing alphaT to 7.522193e-02.
ElecMinimize: 	Predicted alpha/alphaT>3.000000, increasing alphaT to 2.256658e-01.
ElecMinimize: 	Step increased G by 9.071285e-06, reducing alpha to 4.094053e-02.
	FillingsUpdate:  mu: -0.091991967  nElectrons: 401.000000  magneticMoment: [ Abs: 0.66446  Tot: +0.00318 ]
	SubspaceRotationAdjust: set factor to 0.236
ElecMinimize: Iter:  86  G: -1387.120614091041261  |grad|_K:  7.832e-08  alpha:  4.094e-02  linmin: -6.486e-05  t[s]:   5073.47
ElecMinimize: 	Predicted alpha/alphaT>3.000000, increasing alphaT to 1.228216e-01.
ElecMinimize: 	Predicted alpha/alphaT>3.000000, increasing alphaT to 3.684647e-01.
	FillingsUpdate:  mu: -0.092024621  nElectrons: 401.000000  magneticMoment: [ Abs: 0.80831  Tot: -0.02745 ]
	SubspaceRotationAdjust: set factor to 0.17
ElecMinimize: Iter:  87  G: -1387.120615642569874  |grad|_K:  1.824e-07  alpha:  4.132e-01  linmin:  4.617e-05  t[s]:   5141.14
ElecMinimize: 	Bad step direction: g.d > 0.
ElecMinimize: 	Undoing step.
ElecMinimize: 	Step failed: resetting search direction.
	FillingsUpdate:  mu: -0.092024621  nElectrons: 401.000000  magneticMoment: [ Abs: 0.80831  Tot: -0.02745 ]
	SubspaceRotationAdjust: set factor to 0.137
ElecMinimize: Iter:  88  G: -1387.120615642568282  |grad|_K:  1.639e-07  alpha:  0.000e+00
	FillingsUpdate:  mu: -0.092011499  nElectrons: 401.000000  magneticMoment: [ Abs: 0.80837  Tot: -0.02754 ]
	SubspaceRotationAdjust: set factor to 0.111
ElecMinimize: Iter:  89  G: -1387.120617025281945  |grad|_K:  8.596e-08  alpha:  2.398e-01  linmin:  1.220e-06  t[s]:   5215.91
ElecMinimize: 	Predicted alpha/alphaT>3.000000, increasing alphaT to 7.194764e-01.
	FillingsUpdate:  mu: -0.091995527  nElectrons: 401.000000  magneticMoment: [ Abs: 0.80883  Tot: -0.02717 ]
	SubspaceRotationAdjust: set factor to 0.115
ElecMinimize: Iter:  90  G: -1387.120618418651475  |grad|_K:  9.800e-08  alpha:  8.127e-01  linmin: -3.913e-06  t[s]:   5272.02
	FillingsUpdate:  mu: -0.092004265  nElectrons: 401.000000  magneticMoment: [ Abs: 0.80979  Tot: -0.02652 ]
	SubspaceRotationAdjust: set factor to 0.109
ElecMinimize: Iter:  91  G: -1387.120620412179733  |grad|_K:  9.180e-08  alpha:  8.703e-01  linmin: -7.435e-07  t[s]:   5315.65
	FillingsUpdate:  mu: -0.092007113  nElectrons: 401.000000  magneticMoment: [ Abs: 0.81042  Tot: -0.02606 ]
	SubspaceRotationAdjust: set factor to 0.0991
ElecMinimize: Iter:  92  G: -1387.120621447733583  |grad|_K:  6.037e-08  alpha:  5.282e-01  linmin:  3.028e-08  t[s]:   5359.47
	FillingsUpdate:  mu: -0.092006693  nElectrons: 401.000000  magneticMoment: [ Abs: 0.81085  Tot: -0.02558 ]
	SubspaceRotationAdjust: set factor to 0.0999
ElecMinimize: Iter:  93  G: -1387.120622045981463  |grad|_K:  5.180e-08  alpha:  7.111e-01  linmin: -2.623e-08  t[s]:   5403.20
	FillingsUpdate:  mu: -0.092011206  nElectrons: 401.000000  magneticMoment: [ Abs: 0.81127  Tot: -0.02491 ]
	SubspaceRotationAdjust: set factor to 0.102
ElecMinimize: Iter:  94  G: -1387.120622645395088  |grad|_K:  5.476e-08  alpha:  9.673e-01  linmin: -3.097e-10  t[s]:   5446.71
	FillingsUpdate:  mu: -0.091999673  nElectrons: 401.000000  magneticMoment: [ Abs: 0.81181  Tot: -0.02402 ]
	SubspaceRotationAdjust: set factor to 0.1
ElecMinimize: Iter:  95  G: -1387.120623216236936  |grad|_K:  5.323e-08  alpha:  8.241e-01  linmin:  4.508e-08  t[s]:   5490.79
	FillingsUpdate:  mu: -0.092000189  nElectrons: 401.000000  magneticMoment: [ Abs: 0.81248  Tot: -0.02311 ]
	SubspaceRotationAdjust: set factor to 0.0936
ElecMinimize: Iter:  96  G: -1387.120623691698029  |grad|_K:  4.815e-08  alpha:  7.268e-01  linmin:  7.950e-08  t[s]:   5534.15
	FillingsUpdate:  mu: -0.092012622  nElectrons: 401.000000  magneticMoment: [ Abs: 0.81349  Tot: -0.02212 ]
	SubspaceRotationAdjust: set factor to 0.0898
ElecMinimize: Iter:  97  G: -1387.120624095691710  |grad|_K:  4.527e-08  alpha:  7.553e-01  linmin:  1.855e-07  t[s]:   5577.73
	FillingsUpdate:  mu: -0.092006949  nElectrons: 401.000000  magneticMoment: [ Abs: 0.81519  Tot: -0.02082 ]
	SubspaceRotationAdjust: set factor to 0.0943
ElecMinimize: Iter:  98  G: -1387.120624518348905  |grad|_K:  4.452e-08  alpha:  8.950e-01  linmin:  1.766e-07  t[s]:   5620.85
	FillingsUpdate:  mu: -0.092009441  nElectrons: 401.000000  magneticMoment: [ Abs: 0.81773  Tot: -0.01932 ]
	SubspaceRotationAdjust: set factor to 0.1
ElecMinimize: Iter:  99  G: -1387.120624933819954  |grad|_K:  4.842e-08  alpha:  9.090e-01  linmin:  8.319e-08  t[s]:   5664.18
	FillingsUpdate:  mu: -0.092011139  nElectrons: 401.000000  magneticMoment: [ Abs: 0.82199  Tot: -0.01720 ]
	SubspaceRotationAdjust: set factor to 0.104
ElecMinimize: Iter: 100  G: -1387.120625441539914  |grad|_K:  5.476e-08  alpha:  9.385e-01  linmin:  7.542e-08  t[s]:   5707.56
	FillingsUpdate:  mu: -0.091999324  nElectrons: 401.000000  magneticMoment: [ Abs: 0.82907  Tot: -0.01417 ]
	SubspaceRotationAdjust: set factor to 0.108
ElecMinimize: Iter: 101  G: -1387.120626099183255  |grad|_K:  5.989e-08  alpha:  9.505e-01  linmin:  7.900e-08  t[s]:   5751.59
	FillingsUpdate:  mu: -0.092014226  nElectrons: 401.000000  magneticMoment: [ Abs: 0.83998  Tot: -0.01021 ]
	SubspaceRotationAdjust: set factor to 0.107
ElecMinimize: Iter: 102  G: -1387.120626903393486  |grad|_K:  6.978e-08  alpha:  9.718e-01  linmin:  1.700e-07  t[s]:   5795.57
	FillingsUpdate:  mu: -0.092014925  nElectrons: 401.000000  magneticMoment: [ Abs: 0.85661  Tot: -0.00513 ]
	SubspaceRotationAdjust: set factor to 0.0953
ElecMinimize: Iter: 103  G: -1387.120627863251684  |grad|_K:  7.775e-08  alpha:  8.555e-01  linmin:  9.522e-08  t[s]:   5839.19
	FillingsUpdate:  mu: -0.092011313  nElectrons: 401.000000  magneticMoment: [ Abs: 0.88093  Tot: +0.00074 ]
	SubspaceRotationAdjust: set factor to 0.0884
ElecMinimize: Iter: 104  G: -1387.120628963927857  |grad|_K:  7.590e-08  alpha:  7.890e-01  linmin:  2.758e-07  t[s]:   5883.26
	FillingsUpdate:  mu: -0.092020366  nElectrons: 401.000000  magneticMoment: [ Abs: 0.91415  Tot: +0.00747 ]
	SubspaceRotationAdjust: set factor to 0.0961
ElecMinimize: Iter: 105  G: -1387.120630176129453  |grad|_K:  7.354e-08  alpha:  9.147e-01  linmin:  2.327e-07  t[s]:   5926.75
	FillingsUpdate:  mu: -0.092007530  nElectrons: 401.000000  magneticMoment: [ Abs: 0.94709  Tot: +0.01334 ]
	SubspaceRotationAdjust: set factor to 0.107
ElecMinimize: Iter: 106  G: -1387.120631222280736  |grad|_K:  7.248e-08  alpha:  8.396e-01  linmin:  2.101e-07  t[s]:   5970.50
	FillingsUpdate:  mu: -0.092018934  nElectrons: 401.000000  magneticMoment: [ Abs: 0.98148  Tot: +0.01895 ]
	SubspaceRotationAdjust: set factor to 0.117
ElecMinimize: Iter: 107  G: -1387.120632228426530  |grad|_K:  7.820e-08  alpha:  8.309e-01  linmin:  3.595e-08  t[s]:   6014.07
	FillingsUpdate:  mu: -0.092037774  nElectrons: 401.000000  magneticMoment: [ Abs: 1.02994  Tot: +0.02645 ]
	SubspaceRotationAdjust: set factor to 0.123
ElecMinimize: Iter: 108  G: -1387.120633559843782  |grad|_K:  8.990e-08  alpha:  9.436e-01  linmin:  2.770e-07  t[s]:   6057.94
	FillingsUpdate:  mu: -0.092029610  nElectrons: 401.000000  magneticMoment: [ Abs: 1.09404  Tot: +0.03547 ]
	SubspaceRotationAdjust: set factor to 0.119
ElecMinimize: Iter: 109  G: -1387.120635222187730  |grad|_K:  1.060e-07  alpha:  8.936e-01  linmin:  1.952e-07  t[s]:   6101.34
	FillingsUpdate:  mu: -0.092017946  nElectrons: 401.000000  magneticMoment: [ Abs: 1.17566  Tot: +0.04625 ]
	SubspaceRotationAdjust: set factor to 0.108
ElecMinimize: Iter: 110  G: -1387.120637226004646  |grad|_K:  1.116e-07  alpha:  7.736e-01  linmin:  4.739e-07  t[s]:   6144.97
	FillingsUpdate:  mu: -0.092034007  nElectrons: 401.000000  magneticMoment: [ Abs: 1.26727  Tot: +0.05697 ]
	SubspaceRotationAdjust: set factor to 0.103
ElecMinimize: Iter: 111  G: -1387.120639313448692  |grad|_K:  1.051e-07  alpha:  7.314e-01  linmin:  4.460e-07  t[s]:   6188.26
	FillingsUpdate:  mu: -0.092046482  nElectrons: 401.000000  magneticMoment: [ Abs: 1.36169  Tot: +0.06667 ]
	SubspaceRotationAdjust: set factor to 0.106
ElecMinimize: Iter: 112  G: -1387.120641309037183  |grad|_K:  9.511e-08  alpha:  7.889e-01  linmin:  7.155e-07  t[s]:   6231.90
	FillingsUpdate:  mu: -0.092052033  nElectrons: 401.000000  magneticMoment: [ Abs: 1.43399  Tot: +0.07323 ]
	SubspaceRotationAdjust: set factor to 0.113
ElecMinimize: Iter: 113  G: -1387.120642783206677  |grad|_K:  8.296e-08  alpha:  7.127e-01  linmin: -1.247e-07  t[s]:   6275.34
	FillingsUpdate:  mu: -0.092061423  nElectrons: 401.000000  magneticMoment: [ Abs: 1.48914  Tot: +0.07740 ]
	SubspaceRotationAdjust: set factor to 0.13
ElecMinimize: Iter: 114  G: -1387.120643903014980  |grad|_K:  7.442e-08  alpha:  7.038e-01  linmin:  1.619e-07  t[s]:   6319.15
	FillingsUpdate:  mu: -0.092052302  nElectrons: 401.000000  magneticMoment: [ Abs: 1.53861  Tot: +0.08025 ]
	SubspaceRotationAdjust: set factor to 0.153
ElecMinimize: Iter: 115  G: -1387.120644901497826  |grad|_K:  7.096e-08  alpha:  7.817e-01  linmin: -9.304e-08  t[s]:   6363.08
	FillingsUpdate:  mu: -0.092062075  nElectrons: 401.000000  magneticMoment: [ Abs: 1.58164  Tot: +0.08167 ]
	SubspaceRotationAdjust: set factor to 0.146
ElecMinimize: Iter: 116  G: -1387.120645774265540  |grad|_K:  7.774e-08  alpha:  7.502e-01  linmin: -1.136e-08  t[s]:   6406.53
	FillingsUpdate:  mu: -0.092069283  nElectrons: 401.000000  magneticMoment: [ Abs: 1.61998  Tot: +0.08192 ]
	SubspaceRotationAdjust: set factor to 0.135
ElecMinimize: Iter: 117  G: -1387.120646557110604  |grad|_K:  7.630e-08  alpha:  5.596e-01  linmin:  9.585e-08  t[s]:   6450.07
	FillingsUpdate:  mu: -0.092069836  nElectrons: 401.000000  magneticMoment: [ Abs: 1.66641  Tot: +0.08108 ]
	SubspaceRotationAdjust: set factor to 0.145
ElecMinimize: Iter: 118  G: -1387.120647511814695  |grad|_K:  7.381e-08  alpha:  7.126e-01  linmin:  3.033e-07  t[s]:   6493.58
	FillingsUpdate:  mu: -0.092069663  nElectrons: 401.000000  magneticMoment: [ Abs: 1.70954  Tot: +0.07933 ]
	SubspaceRotationAdjust: set factor to 0.159
ElecMinimize: Iter: 119  G: -1387.120648402343022  |grad|_K:  7.578e-08  alpha:  7.130e-01  linmin:  8.994e-07  t[s]:   6537.07
	FillingsUpdate:  mu: -0.092078628  nElectrons: 401.000000  magneticMoment: [ Abs: 1.74685  Tot: +0.07665 ]
	SubspaceRotationAdjust: set factor to 0.177
ElecMinimize: Iter: 120  G: -1387.120649185244474  |grad|_K:  7.522e-08  alpha:  5.951e-01  linmin:  8.901e-07  t[s]:   6580.70
	FillingsUpdate:  mu: -0.092091400  nElectrons: 401.000000  magneticMoment: [ Abs: 1.77916  Tot: +0.07359 ]
	SubspaceRotationAdjust: set factor to 0.165
ElecMinimize: Iter: 121  G: -1387.120649873998673  |grad|_K:  7.526e-08  alpha:  5.289e-01  linmin:  2.344e-06  t[s]:   6623.69
	FillingsUpdate:  mu: -0.092090311  nElectrons: 401.000000  magneticMoment: [ Abs: 1.80684  Tot: +0.07007 ]
	SubspaceRotationAdjust: set factor to 0.127
ElecMinimize: Iter: 122  G: -1387.120650477902018  |grad|_K:  7.975e-08  alpha:  4.596e-01  linmin:  4.319e-06  t[s]:   6667.23
	FillingsUpdate:  mu: -0.092090109  nElectrons: 401.000000  magneticMoment: [ Abs: 1.80896  Tot: +0.06974 ]
	SubspaceRotationAdjust: set factor to 0.105
ElecMinimize: Iter: 123  G: -1387.120650562259925  |grad|_K:  7.326e-08  alpha:  3.189e-02  linmin: -8.196e-05  t[s]:   6710.69
ElecMinimize: 	Predicted alpha/alphaT>3.000000, increasing alphaT to 9.565987e-02.
ElecMinimize: 	Predicted alpha/alphaT>3.000000, increasing alphaT to 2.869796e-01.
	FillingsUpdate:  mu: -0.092086498  nElectrons: 401.000000  magneticMoment: [ Abs: 1.83892  Tot: +0.06432 ]
	SubspaceRotationAdjust: set factor to 0.0865
ElecMinimize: Iter: 124  G: -1387.120651668314395  |grad|_K:  1.159e-07  alpha:  5.407e-01  linmin:  4.076e-05  t[s]:   6778.72
	FillingsUpdate:  mu: -0.092086496  nElectrons: 401.000000  magneticMoment: [ Abs: 1.83907  Tot: +0.06429 ]
	SubspaceRotationAdjust: set factor to 0.0774
ElecMinimize: Iter: 125  G: -1387.120651671017640  |grad|_K:  1.100e-07  alpha:  1.071e-03  linmin: -2.928e-05  t[s]:   6821.98
ElecMinimize: 	Predicted alpha/alphaT>3.000000, increasing alphaT to 3.213239e-03.
ElecMinimize: 	Predicted alpha/alphaT>3.000000, increasing alphaT to 9.639717e-03.
ElecMinimize: 	Predicted alpha/alphaT>3.000000, increasing alphaT to 2.891915e-02.
	FillingsUpdate:  mu: -0.092090262  nElectrons: 401.000000  magneticMoment: [ Abs: 1.87490  Tot: +0.05767 ]
	SubspaceRotationAdjust: set factor to 0.0488
ElecMinimize: Iter: 126  G: -1387.120652090348358  |grad|_K:  1.526e-07  alpha:  2.834e-01  linmin:  1.415e-04  t[s]:   6889.37
ElecMinimize: 	Bad step direction: g.d > 0.
ElecMinimize: 	Undoing step.
ElecMinimize: 	Step failed: resetting search direction.
	FillingsUpdate:  mu: -0.092090262  nElectrons: 401.000000  magneticMoment: [ Abs: 1.87490  Tot: +0.05767 ]
	SubspaceRotationAdjust: set factor to 0.0344
ElecMinimize: Iter: 127  G: -1387.120652090351768  |grad|_K:  1.282e-07  alpha:  0.000e+00
	FillingsUpdate:  mu: -0.092091295  nElectrons: 401.000000  magneticMoment: [ Abs: 1.87477  Tot: +0.05754 ]
	SubspaceRotationAdjust: set factor to 0.0262
ElecMinimize: Iter: 128  G: -1387.120654016716799  |grad|_K:  6.101e-08  alpha:  4.661e-01  linmin: -5.264e-04  t[s]:   6964.25
	FillingsUpdate:  mu: -0.092093409  nElectrons: 401.000000  magneticMoment: [ Abs: 1.87460  Tot: +0.05732 ]
	SubspaceRotationAdjust: set factor to 0.0259
ElecMinimize: Iter: 129  G: -1387.120654741656836  |grad|_K:  3.557e-08  alpha:  6.530e-01  linmin: -2.170e-04  t[s]:   7008.14
	FillingsUpdate:  mu: -0.092092101  nElectrons: 401.000000  magneticMoment: [ Abs: 1.87439  Tot: +0.05704 ]
	SubspaceRotationAdjust: set factor to 0.0329
ElecMinimize: Iter: 130  G: -1387.120655117288834  |grad|_K:  4.003e-08  alpha:  9.668e-01  linmin: -3.471e-05  t[s]:   7051.63
	FillingsUpdate:  mu: -0.092091505  nElectrons: 401.000000  magneticMoment: [ Abs: 1.87400  Tot: +0.05645 ]
	SubspaceRotationAdjust: set factor to 0.0376
ElecMinimize: Iter: 131  G: -1387.120655552890639  |grad|_K:  4.762e-08  alpha:  1.009e+00  linmin: -2.944e-06  t[s]:   7095.13
	FillingsUpdate:  mu: -0.092092333  nElectrons: 401.000000  magneticMoment: [ Abs: 1.87331  Tot: +0.05542 ]
	SubspaceRotationAdjust: set factor to 0.0423
ElecMinimize: Iter: 132  G: -1387.120656070352879  |grad|_K:  4.827e-08  alpha:  9.631e-01  linmin: -1.314e-06  t[s]:   7138.79
	FillingsUpdate:  mu: -0.092091146  nElectrons: 401.000000  magneticMoment: [ Abs: 1.87245  Tot: +0.05419 ]
	SubspaceRotationAdjust: set factor to 0.0462
ElecMinimize: Iter: 133  G: -1387.120656559419103  |grad|_K:  5.172e-08  alpha:  8.970e-01  linmin: -6.220e-07  t[s]:   7182.10
	FillingsUpdate:  mu: -0.092093644  nElectrons: 401.000000  magneticMoment: [ Abs: 1.87093  Tot: +0.05200 ]
	SubspaceRotationAdjust: set factor to 0.049
ElecMinimize: Iter: 134  G: -1387.120657275902886  |grad|_K:  5.854e-08  alpha:  1.143e+00  linmin: -1.099e-06  t[s]:   7225.46
	FillingsUpdate:  mu: -0.092096779  nElectrons: 401.000000  magneticMoment: [ Abs: 1.86920  Tot: +0.04944 ]
	SubspaceRotationAdjust: set factor to 0.0514
ElecMinimize: Iter: 135  G: -1387.120658015106983  |grad|_K:  5.766e-08  alpha:  9.194e-01  linmin: -2.074e-07  t[s]:   7268.64
	FillingsUpdate:  mu: -0.092097753  nElectrons: 401.000000  magneticMoment: [ Abs: 1.86772  Tot: +0.04709 ]
	SubspaceRotationAdjust: set factor to 0.0547
ElecMinimize: Iter: 136  G: -1387.120658611722320  |grad|_K:  5.302e-08  alpha:  7.750e-01  linmin: -1.116e-07  t[s]:   7312.21
	FillingsUpdate:  mu: -0.092094179  nElectrons: 401.000000  magneticMoment: [ Abs: 1.86640  Tot: +0.04470 ]
	SubspaceRotationAdjust: set factor to 0.0583
ElecMinimize: Iter: 137  G: -1387.120659149932180  |grad|_K:  5.004e-08  alpha:  8.272e-01  linmin: -1.218e-07  t[s]:   7355.95
	FillingsUpdate:  mu: -0.092090334  nElectrons: 401.000000  magneticMoment: [ Abs: 1.86537  Tot: +0.04237 ]
	SubspaceRotationAdjust: set factor to 0.0634
ElecMinimize: Iter: 138  G: -1387.120659618494756  |grad|_K:  4.501e-08  alpha:  8.091e-01  linmin: -5.490e-08  t[s]:   7399.46
	FillingsUpdate:  mu: -0.092092473  nElectrons: 401.000000  magneticMoment: [ Abs: 1.86466  Tot: +0.03982 ]
	SubspaceRotationAdjust: set factor to 0.0695
ElecMinimize: Iter: 139  G: -1387.120660061547369  |grad|_K:  4.582e-08  alpha:  9.465e-01  linmin: -2.862e-08  t[s]:   7443.16
	FillingsUpdate:  mu: -0.092093867  nElectrons: 401.000000  magneticMoment: [ Abs: 1.86431  Tot: +0.03653 ]
	SubspaceRotationAdjust: set factor to 0.0749
ElecMinimize: Iter: 140  G: -1387.120660571319831  |grad|_K:  5.264e-08  alpha:  1.051e+00  linmin: -4.263e-09  t[s]:   7486.67
	FillingsUpdate:  mu: -0.092090772  nElectrons: 401.000000  magneticMoment: [ Abs: 1.86461  Tot: +0.03203 ]
	SubspaceRotationAdjust: set factor to 0.0796
ElecMinimize: Iter: 141  G: -1387.120661216694998  |grad|_K:  5.855e-08  alpha:  1.009e+00  linmin:  1.915e-08  t[s]:   7530.35
	FillingsUpdate:  mu: -0.092088204  nElectrons: 401.000000  magneticMoment: [ Abs: 1.86599  Tot: +0.02633 ]
	SubspaceRotationAdjust: set factor to 0.0837
ElecMinimize: Iter: 142  G: -1387.120661981788544  |grad|_K:  6.306e-08  alpha:  9.667e-01  linmin:  7.849e-08  t[s]:   7573.95
	FillingsUpdate:  mu: -0.092089683  nElectrons: 401.000000  magneticMoment: [ Abs: 1.86864  Tot: +0.02000 ]
	SubspaceRotationAdjust: set factor to 0.0876
ElecMinimize: Iter: 143  G: -1387.120662798714875  |grad|_K:  6.079e-08  alpha:  8.900e-01  linmin:  7.493e-08  t[s]:   7617.72
	FillingsUpdate:  mu: -0.092089974  nElectrons: 401.000000  magneticMoment: [ Abs: 1.87221  Tot: +0.01412 ]
	SubspaceRotationAdjust: set factor to 0.0924
ElecMinimize: Iter: 144  G: -1387.120663524131260  |grad|_K:  5.516e-08  alpha:  8.506e-01  linmin: -9.998e-09  t[s]:   7661.75
	FillingsUpdate:  mu: -0.092088327  nElectrons: 401.000000  magneticMoment: [ Abs: 1.87596  Tot: +0.00935 ]
	SubspaceRotationAdjust: set factor to 0.0976
ElecMinimize: Iter: 145  G: -1387.120664090672108  |grad|_K:  4.998e-08  alpha:  8.065e-01  linmin: -4.666e-09  t[s]:   7705.74
	FillingsUpdate:  mu: -0.092091905  nElectrons: 401.000000  magneticMoment: [ Abs: 1.87993  Tot: +0.00531 ]
	SubspaceRotationAdjust: set factor to 0.102
ElecMinimize: Iter: 146  G: -1387.120664553781808  |grad|_K:  4.434e-08  alpha:  8.029e-01  linmin:  2.803e-08  t[s]:   7749.79
	FillingsUpdate:  mu: -0.092096723  nElectrons: 401.000000  magneticMoment: [ Abs: 1.88374  Tot: +0.00205 ]
	SubspaceRotationAdjust: set factor to 0.106
ElecMinimize: Iter: 147  G: -1387.120664909261677  |grad|_K:  3.920e-08  alpha:  7.833e-01  linmin:  2.439e-08  t[s]:   7794.11
	FillingsUpdate:  mu: -0.092096203  nElectrons: 401.000000  magneticMoment: [ Abs: 1.88743  Tot: -0.00050 ]
	SubspaceRotationAdjust: set factor to 0.106
ElecMinimize: Iter: 148  G: -1387.120665179210619  |grad|_K:  3.590e-08  alpha:  7.612e-01  linmin:  4.261e-08  t[s]:   7838.36
	FillingsUpdate:  mu: -0.092091917  nElectrons: 401.000000  magneticMoment: [ Abs: 1.89145  Tot: -0.00290 ]
	SubspaceRotationAdjust: set factor to 0.0963
ElecMinimize: Iter: 149  G: -1387.120665421867898  |grad|_K:  3.487e-08  alpha:  8.158e-01  linmin:  6.596e-08  t[s]:   7883.20
	FillingsUpdate:  mu: -0.092092439  nElectrons: 401.000000  magneticMoment: [ Abs: 1.89563  Tot: -0.00499 ]
	SubspaceRotationAdjust: set factor to 0.0783
ElecMinimize: Iter: 150  G: -1387.120665625086986  |grad|_K:  3.174e-08  alpha:  7.244e-01  linmin:  5.543e-08  t[s]:   7928.74
	FillingsUpdate:  mu: -0.092095068  nElectrons: 401.000000  magneticMoment: [ Abs: 1.89970  Tot: -0.00678 ]
	SubspaceRotationAdjust: set factor to 0.0678
ElecMinimize: Iter: 151  G: -1387.120665796095409  |grad|_K:  2.769e-08  alpha:  7.357e-01  linmin:  7.666e-08  t[s]:   7974.02
	FillingsUpdate:  mu: -0.092095009  nElectrons: 401.000000  magneticMoment: [ Abs: 1.90324  Tot: -0.00817 ]
	SubspaceRotationAdjust: set factor to 0.072
ElecMinimize: Iter: 152  G: -1387.120665922699118  |grad|_K:  2.352e-08  alpha:  7.160e-01  linmin:  1.710e-08  t[s]:   8018.11
	FillingsUpdate:  mu: -0.092092425  nElectrons: 401.000000  magneticMoment: [ Abs: 1.90626  Tot: -0.00923 ]
	SubspaceRotationAdjust: set factor to 0.0794
ElecMinimize: Iter: 153  G: -1387.120666017634903  |grad|_K:  2.034e-08  alpha:  7.429e-01  linmin: -3.548e-09  t[s]:   8061.86
	FillingsUpdate:  mu: -0.092090810  nElectrons: 401.000000  magneticMoment: [ Abs: 1.90870  Tot: -0.01002 ]
	SubspaceRotationAdjust: set factor to 0.0869
ElecMinimize: Iter: 154  G: -1387.120666084591221  |grad|_K:  1.787e-08  alpha:  7.006e-01  linmin: -7.024e-08  t[s]:   8105.78
	FillingsUpdate:  mu: -0.092092537  nElectrons: 401.000000  magneticMoment: [ Abs: 1.91139  Tot: -0.01081 ]
	SubspaceRotationAdjust: set factor to 0.0915
ElecMinimize: Iter: 155  G: -1387.120666147849988  |grad|_K:  1.838e-08  alpha:  8.584e-01  linmin:  2.011e-08  t[s]:   8150.60
	FillingsUpdate:  mu: -0.092094426  nElectrons: 401.000000  magneticMoment: [ Abs: 1.91460  Tot: -0.01170 ]
	SubspaceRotationAdjust: set factor to 0.0879
ElecMinimize: Iter: 156  G: -1387.120666215465235  |grad|_K:  1.925e-08  alpha:  8.667e-01  linmin:  1.069e-07  t[s]:   8194.97
	FillingsUpdate:  mu: -0.092094493  nElectrons: 401.000000  magneticMoment: [ Abs: 1.91830  Tot: -0.01269 ]
	SubspaceRotationAdjust: set factor to 0.0847
ElecMinimize: Iter: 157  G: -1387.120666284737126  |grad|_K:  1.770e-08  alpha:  8.106e-01  linmin:  6.181e-08  t[s]:   8239.04
	FillingsUpdate:  mu: -0.092094032  nElectrons: 401.000000  magneticMoment: [ Abs: 1.92224  Tot: -0.01369 ]
	SubspaceRotationAdjust: set factor to 0.0885
ElecMinimize: Iter: 158  G: -1387.120666351341015  |grad|_K:  2.042e-08  alpha:  9.209e-01  linmin: -5.870e-08  t[s]:   8283.20
	FillingsUpdate:  mu: -0.092092425  nElectrons: 401.000000  magneticMoment: [ Abs: 1.92805  Tot: -0.01514 ]
	SubspaceRotationAdjust: set factor to 0.0933
ElecMinimize: Iter: 159  G: -1387.120666442132460  |grad|_K:  2.103e-08  alpha:  9.424e-01  linmin: -6.155e-08  t[s]:   8327.93
	FillingsUpdate:  mu: -0.092093135  nElectrons: 401.000000  magneticMoment: [ Abs: 1.93317  Tot: -0.01640 ]
	SubspaceRotationAdjust: set factor to 0.0913
ElecMinimize: Iter: 160  G: -1387.120666516226947  |grad|_K:  1.824e-08  alpha:  7.251e-01  linmin: -2.213e-08  t[s]:   8372.21
	FillingsUpdate:  mu: -0.092093621  nElectrons: 401.000000  magneticMoment: [ Abs: 1.93736  Tot: -0.01740 ]
	SubspaceRotationAdjust: set factor to 0.0922
ElecMinimize: Iter: 161  G: -1387.120666571750007  |grad|_K:  1.595e-08  alpha:  7.223e-01  linmin: -3.135e-08  t[s]:   8416.96
	FillingsUpdate:  mu: -0.092093832  nElectrons: 401.000000  magneticMoment: [ Abs: 1.94141  Tot: -0.01838 ]
	SubspaceRotationAdjust: set factor to 0.095
ElecMinimize: Iter: 162  G: -1387.120666620093289  |grad|_K:  1.605e-08  alpha:  8.218e-01  linmin:  1.032e-09  t[s]:   8461.77
	FillingsUpdate:  mu: -0.092096698  nElectrons: 401.000000  magneticMoment: [ Abs: 1.94597  Tot: -0.01948 ]
	SubspaceRotationAdjust: set factor to 0.0969
ElecMinimize: Iter: 163  G: -1387.120666670190303  |grad|_K:  1.718e-08  alpha:  8.420e-01  linmin: -3.202e-08  t[s]:   8505.91
	FillingsUpdate:  mu: -0.092097842  nElectrons: 401.000000  magneticMoment: [ Abs: 1.95243  Tot: -0.02104 ]
	SubspaceRotationAdjust: set factor to 0.101
ElecMinimize: Iter: 164  G: -1387.120666735890381  |grad|_K:  1.933e-08  alpha:  9.646e-01  linmin:  9.665e-08  t[s]:   8550.07
	FillingsUpdate:  mu: -0.092096515  nElectrons: 401.000000  magneticMoment: [ Abs: 1.96112  Tot: -0.02319 ]
	SubspaceRotationAdjust: set factor to 0.11
ElecMinimize: Iter: 165  G: -1387.120666819917915  |grad|_K:  2.171e-08  alpha:  9.752e-01  linmin:  3.785e-08  t[s]:   8594.45
	FillingsUpdate:  mu: -0.092096073  nElectrons: 401.000000  magneticMoment: [ Abs: 1.97182  Tot: -0.02584 ]
	SubspaceRotationAdjust: set factor to 0.113
ElecMinimize: Iter: 166  G: -1387.120666919534187  |grad|_K:  2.440e-08  alpha:  9.155e-01  linmin:  6.991e-08  t[s]:   8638.74
	FillingsUpdate:  mu: -0.092095502  nElectrons: 401.000000  magneticMoment: [ Abs: 1.98570  Tot: -0.02934 ]
	SubspaceRotationAdjust: set factor to 0.104
ElecMinimize: Iter: 167  G: -1387.120667043769572  |grad|_K:  2.769e-08  alpha:  9.048e-01  linmin:  1.629e-07  t[s]:   8683.50
	FillingsUpdate:  mu: -0.092097368  nElectrons: 401.000000  magneticMoment: [ Abs: 2.00167  Tot: -0.03340 ]
	SubspaceRotationAdjust: set factor to 0.0878
ElecMinimize: Iter: 168  G: -1387.120667183249452  |grad|_K:  2.962e-08  alpha:  7.895e-01  linmin: -1.816e-08  t[s]:   8728.17
	FillingsUpdate:  mu: -0.092099428  nElectrons: 401.000000  magneticMoment: [ Abs: 2.01894  Tot: -0.03780 ]
	SubspaceRotationAdjust: set factor to 0.0792
ElecMinimize: Iter: 169  G: -1387.120667329979369  |grad|_K:  2.724e-08  alpha:  7.238e-01  linmin:  1.426e-07  t[s]:   8771.98
	FillingsUpdate:  mu: -0.092099830  nElectrons: 401.000000  magneticMoment: [ Abs: 2.03382  Tot: -0.04163 ]
	SubspaceRotationAdjust: set factor to 0.083
ElecMinimize: Iter: 170  G: -1387.120667453383021  |grad|_K:  2.432e-08  alpha:  7.212e-01  linmin:  6.075e-08  t[s]:   8815.80
	FillingsUpdate:  mu: -0.092100377  nElectrons: 401.000000  magneticMoment: [ Abs: 2.04610  Tot: -0.04482 ]
	SubspaceRotationAdjust: set factor to 0.0886
ElecMinimize: Iter: 171  G: -1387.120667552962004  |grad|_K:  2.168e-08  alpha:  7.298e-01  linmin:  5.022e-08  t[s]:   8860.33
	FillingsUpdate:  mu: -0.092101884  nElectrons: 401.000000  magneticMoment: [ Abs: 2.05603  Tot: -0.04745 ]
	SubspaceRotationAdjust: set factor to 0.0848
ElecMinimize: Iter: 172  G: -1387.120667631119431  |grad|_K:  1.992e-08  alpha:  7.211e-01  linmin:  6.813e-08  t[s]:   8905.24
	FillingsUpdate:  mu: -0.092102323  nElectrons: 401.000000  magneticMoment: [ Abs: 2.06451  Tot: -0.04976 ]
	SubspaceRotationAdjust: set factor to 0.0775
ElecMinimize: Iter: 173  G: -1387.120667696554619  |grad|_K:  1.790e-08  alpha:  7.147e-01  linmin:  2.171e-08  t[s]:   8949.56
	FillingsUpdate:  mu: -0.092101305  nElectrons: 401.000000  magneticMoment: [ Abs: 2.07230  Tot: -0.05194 ]
	SubspaceRotationAdjust: set factor to 0.0816
ElecMinimize: Iter: 174  G: -1387.120667754821397  |grad|_K:  1.732e-08  alpha:  7.868e-01  linmin: -3.296e-08  t[s]:   8993.58
	FillingsUpdate:  mu: -0.092101361  nElectrons: 401.000000  magneticMoment: [ Abs: 2.07933  Tot: -0.05398 ]
	SubspaceRotationAdjust: set factor to 0.0911
ElecMinimize: Iter: 175  G: -1387.120667806270376  |grad|_K:  1.629e-08  alpha:  7.423e-01  linmin: -1.462e-08  t[s]:   9037.98
	FillingsUpdate:  mu: -0.092101783  nElectrons: 401.000000  magneticMoment: [ Abs: 2.08586  Tot: -0.05594 ]
	SubspaceRotationAdjust: set factor to 0.092
ElecMinimize: Iter: 176  G: -1387.120667853229861  |grad|_K:  1.575e-08  alpha:  7.669e-01  linmin: -3.501e-08  t[s]:   9082.50
	FillingsUpdate:  mu: -0.092102428  nElectrons: 401.000000  magneticMoment: [ Abs: 2.09213  Tot: -0.05789 ]
	SubspaceRotationAdjust: set factor to 0.0876
ElecMinimize: Iter: 177  G: -1387.120667897123894  |grad|_K:  1.558e-08  alpha:  7.654e-01  linmin:  2.450e-08  t[s]:   9127.10
	FillingsUpdate:  mu: -0.092104835  nElectrons: 401.000000  magneticMoment: [ Abs: 2.09876  Tot: -0.06005 ]
	SubspaceRotationAdjust: set factor to 0.0873
ElecMinimize: Iter: 178  G: -1387.120667942802129  |grad|_K:  1.602e-08  alpha:  8.149e-01  linmin: -3.536e-08  t[s]:   9171.93
	FillingsUpdate:  mu: -0.092106055  nElectrons: 401.000000  magneticMoment: [ Abs: 2.10581  Tot: -0.06240 ]
	SubspaceRotationAdjust: set factor to 0.0956
ElecMinimize: Iter: 179  G: -1387.120667990520360  |grad|_K:  1.624e-08  alpha:  8.046e-01  linmin:  5.385e-08  t[s]:   9215.99
	FillingsUpdate:  mu: -0.092104659  nElectrons: 401.000000  magneticMoment: [ Abs: 2.11343  Tot: -0.06499 ]
	SubspaceRotationAdjust: set factor to 0.103
ElecMinimize: Iter: 180  G: -1387.120668041093268  |grad|_K:  1.692e-08  alpha:  8.306e-01  linmin: -1.292e-08  t[s]:   9259.76
[...]
	FillingsUpdate:  mu: -0.171251800  nElectrons: 401.081344  magneticMoment: [ Abs: 2.65358  Tot: -0.16285 ]
	SubspaceRotationAdjust: set factor to 0.0615
ElecMinimize: Iter:   4  G: -1387.111888709564482  |grad|_K:  8.749e-08  alpha:  9.316e-01  linmin: -1.033e-03  t[s]:  22849.75
	Linear fluid (dielectric constant: 78.4, screening length: 5.74355 Bohr) occupying 0.749221 of unit cell:	Completed after 2 iterations at t[s]:  22864.28
	Linear fluid (dielectric constant: 78.4, screening length: 5.74355 Bohr) occupying 0.749221 of unit cell:	Completed after 0 iterations at t[s]:  22879.87
	FillingsUpdate:  mu: -0.171251800  nElectrons: 401.081390  magneticMoment: [ Abs: 2.65329  Tot: -0.16268 ]
	SubspaceRotationAdjust: set factor to 0.0685
ElecMinimize: Iter:   5  G: -1387.111889924570278  |grad|_K:  8.673e-08  alpha:  6.113e-01  linmin:  1.187e-03  t[s]:  22900.85
	Linear fluid (dielectric constant: 78.4, screening length: 5.74355 Bohr) occupying 0.749220 of unit cell:	Completed after 2 iterations at t[s]:  22914.73
	Linear fluid (dielectric constant: 78.4, screening length: 5.74355 Bohr) occupying 0.749220 of unit cell:	Completed after 0 iterations at t[s]:  22930.66
	FillingsUpdate:  mu: -0.171251800  nElectrons: 401.082242  magneticMoment: [ Abs: 2.65312  Tot: -0.16252 ]
	SubspaceRotationAdjust: set factor to 0.0753
ElecMinimize: Iter:   6  G: -1387.111890880649980  |grad|_K:  8.148e-08  alpha:  6.087e-01  linmin: -6.616e-04  t[s]:  22952.38
	Linear fluid (dielectric constant: 78.4, screening length: 5.74355 Bohr) occupying 0.749218 of unit cell:	Completed after 2 iterations at t[s]:  22966.88
	Linear fluid (dielectric constant: 78.4, screening length: 5.74355 Bohr) occupying 0.749217 of unit cell:	Completed after 0 iterations at t[s]:  22982.57
	FillingsUpdate:  mu: -0.171251800  nElectrons: 401.083345  magneticMoment: [ Abs: 2.65285  Tot: -0.16224 ]
	SubspaceRotationAdjust: set factor to 0.0925
ElecMinimize: Iter:   7  G: -1387.111892130087654  |grad|_K:  7.893e-08  alpha:  7.522e-01  linmin: -4.533e-04  t[s]:  23003.58
	Linear fluid (dielectric constant: 78.4, screening length: 5.74355 Bohr) occupying 0.749212 of unit cell:	Completed after 2 iterations at t[s]:  23017.91
	Linear fluid (dielectric constant: 78.4, screening length: 5.74355 Bohr) occupying 0.749212 of unit cell:	Completed after 0 iterations at t[s]:  23034.09
	FillingsUpdate:  mu: -0.171251800  nElectrons: 401.084821  magneticMoment: [ Abs: 2.65250  Tot: -0.16185 ]
	SubspaceRotationAdjust: set factor to 0.11
ElecMinimize: Iter:   8  G: -1387.111893311404856  |grad|_K:  7.288e-08  alpha:  7.820e-01  linmin: -2.007e-04  t[s]:  23055.59
	Linear fluid (dielectric constant: 78.4, screening length: 5.74355 Bohr) occupying 0.749207 of unit cell:	Completed after 3 iterations at t[s]:  23069.98
	Linear fluid (dielectric constant: 78.4, screening length: 5.74355 Bohr) occupying 0.749208 of unit cell:	Completed after 0 iterations at t[s]:  23086.47
	FillingsUpdate:  mu: -0.171251800  nElectrons: 401.085242  magneticMoment: [ Abs: 2.65227  Tot: -0.16151 ]
	SubspaceRotationAdjust: set factor to 0.103
ElecMinimize: Iter:   9  G: -1387.111894011171898  |grad|_K:  7.306e-08  alpha:  5.439e-01  linmin:  7.269e-04  t[s]:  23107.85
	Linear fluid (dielectric constant: 78.4, screening length: 5.74355 Bohr) occupying 0.749204 of unit cell:	Completed after 1 iterations at t[s]:  23121.45
	Linear fluid (dielectric constant: 78.4, screening length: 5.74355 Bohr) occupying 0.749206 of unit cell:	Completed after 0 iterations at t[s]:  23137.94
	FillingsUpdate:  mu: -0.171251800  nElectrons: 401.084421  magneticMoment: [ Abs: 2.65205  Tot: -0.16130 ]
	SubspaceRotationAdjust: set factor to 0.0838
ElecMinimize: Iter:  10  G: -1387.111894348237684  |grad|_K:  6.630e-08  alpha:  3.043e-01  linmin:  1.292e-03  t[s]:  23159.41
	Linear fluid (dielectric constant: 78.4, screening length: 5.74355 Bohr) occupying 0.749205 of unit cell:	Completed after 2 iterations at t[s]:  23173.11
	Linear fluid (dielectric constant: 78.4, screening length: 5.74355 Bohr) occupying 0.749205 of unit cell:	Completed after 0 iterations at t[s]:  23189.40
	FillingsUpdate:  mu: -0.171251800  nElectrons: 401.084887  magneticMoment: [ Abs: 2.65197  Tot: -0.16113 ]
	SubspaceRotationAdjust: set factor to 0.0907
ElecMinimize: Iter:  11  G: -1387.111894535249121  |grad|_K:  4.083e-08  alpha:  2.422e-01  linmin: -1.825e-03  t[s]:  23211.40
	Linear fluid (dielectric constant: 78.4, screening length: 5.74355 Bohr) occupying 0.749205 of unit cell:	Completed after 0 iterations at t[s]:  23224.82
	Linear fluid (dielectric constant: 78.4, screening length: 5.74355 Bohr) occupying 0.749205 of unit cell:	Completed after 0 iterations at t[s]:  23240.36
	FillingsUpdate:  mu: -0.171251800  nElectrons: 401.084663  magneticMoment: [ Abs: 2.65183  Tot: -0.16092 ]
	SubspaceRotationAdjust: set factor to 0.108
ElecMinimize: Iter:  12  G: -1387.111894799007132  |grad|_K:  3.234e-08  alpha:  5.896e-01  linmin: -2.244e-04  t[s]:  23262.26
	Linear fluid (dielectric constant: 78.4, screening length: 5.74355 Bohr) occupying 0.749205 of unit cell:	Completed after 0 iterations at t[s]:  23275.91
	Linear fluid (dielectric constant: 78.4, screening length: 5.74355 Bohr) occupying 0.749205 of unit cell:	Completed after 0 iterations at t[s]:  23292.03
	FillingsUpdate:  mu: -0.171251800  nElectrons: 401.083817  magneticMoment: [ Abs: 2.65164  Tot: -0.16075 ]
	SubspaceRotationAdjust: set factor to 0.141
ElecMinimize: Iter:  13  G: -1387.111894946842767  |grad|_K:  2.600e-08  alpha:  6.008e-01  linmin: -1.272e-03  t[s]:  23313.38
	Linear fluid (dielectric constant: 78.4, screening length: 5.74355 Bohr) occupying 0.749206 of unit cell:	Completed after 2 iterations at t[s]:  23327.40
	Linear fluid (dielectric constant: 78.4, screening length: 5.74355 Bohr) occupying 0.749206 of unit cell:	Completed after 0 iterations at t[s]:  23343.91
	FillingsUpdate:  mu: -0.171251800  nElectrons: 401.083088  magneticMoment: [ Abs: 2.65151  Tot: -0.16062 ]
	SubspaceRotationAdjust: set factor to 0.143
ElecMinimize: Iter:  14  G: -1387.111894991581039  |grad|_K:  2.877e-08  alpha:  3.772e-01  linmin: -2.232e-03  t[s]:  23365.08
	Linear fluid (dielectric constant: 78.4, screening length: 5.74355 Bohr) occupying 0.749206 of unit cell:	Completed after 0 iterations at t[s]:  23378.66
	Linear fluid (dielectric constant: 78.4, screening length: 5.74355 Bohr) occupying 0.749207 of unit cell:	Completed after 0 iterations at t[s]:  23394.63
	FillingsUpdate:  mu: -0.171251800  nElectrons: 401.082656  magneticMoment: [ Abs: 2.65130  Tot: -0.16018 ]
	SubspaceRotationAdjust: set factor to 0.207
ElecMinimize: Iter:  15  G: -1387.111895081357034  |grad|_K:  2.920e-08  alpha:  4.659e-01  linmin:  1.317e-04  t[s]:  23416.12
	Linear fluid (dielectric constant: 78.4, screening length: 5.74355 Bohr) occupying 0.749208 of unit cell:	Completed after 2 iterations at t[s]:  23429.81
	Linear fluid (dielectric constant: 78.4, screening length: 5.74355 Bohr) occupying 0.749207 of unit cell:	Completed after 1 iterations at t[s]:  23446.05
ElecMinimize: 	Step increased G by 1.193871e-08, reducing alpha to 8.943997e-03.
	Linear fluid (dielectric constant: 78.4, screening length: 5.74355 Bohr) occupying 0.749207 of unit cell:	Completed after 0 iterations at t[s]:  23478.37
	FillingsUpdate:  mu: -0.171251800  nElectrons: 401.082656  magneticMoment: [ Abs: 2.65129  Tot: -0.16017 ]
	SubspaceRotationAdjust: set factor to 0.155
ElecMinimize: Iter:  16  G: -1387.111895108947465  |grad|_K:  6.004e-08  alpha:  8.944e-03  linmin:  3.942e-03  t[s]:  23500.21
ElecMinimize: 	Bad step direction: g.d > 0.
ElecMinimize: 	Undoing step.
	Linear fluid (dielectric constant: 78.4, screening length: 5.74355 Bohr) occupying 0.749207 of unit cell:	Completed after 0 iterations at t[s]:  23513.56
ElecMinimize: 	Step failed: resetting search direction.
	FillingsUpdate:  mu: -0.171251800  nElectrons: 401.082656  magneticMoment: [ Abs: 2.65129  Tot: -0.16017 ]
	SubspaceRotationAdjust: set factor to 0.129
ElecMinimize: Iter:  17  G: -1387.111895108926092  |grad|_K:  5.475e-08  alpha:  0.000e+00
	Linear fluid (dielectric constant: 78.4, screening length: 5.74355 Bohr) occupying 0.749207 of unit cell:	Completed after 0 iterations at t[s]:  23548.10
ElecMinimize: 	Wrong curvature in test step, increasing alphaT to 2.683199e-02.
	Linear fluid (dielectric constant: 78.4, screening length: 5.74355 Bohr) occupying 0.749207 of unit cell:	Completed after 0 iterations at t[s]:  23560.86
	FillingsUpdate:  mu: -0.171251800  nElectrons: 401.082608  magneticMoment: [ Abs: 2.65129  Tot: -0.16017 ]
	SubspaceRotationAdjust: set factor to 0.115
ElecMinimize: Iter:  18  G: -1387.111895122208807  |grad|_K:  5.161e-08  alpha: -6.140e-02  linmin: -2.986e-02  t[s]:  23582.14
	Linear fluid (dielectric constant: 78.4, screening length: 5.74355 Bohr) occupying 0.749207 of unit cell:	Completed after 6 iterations at t[s]:  23597.43
	Linear fluid (dielectric constant: 78.4, screening length: 5.74355 Bohr) occupying 0.749207 of unit cell:	Completed after 6 iterations at t[s]:  23615.40
ElecMinimize: 	Step increased G by 5.064544e-08, reducing alpha to 9.092454e-03.
	Linear fluid (dielectric constant: 78.4, screening length: 5.74355 Bohr) occupying 0.749207 of unit cell:	Completed after 0 iterations at t[s]:  23649.49
	FillingsUpdate:  mu: -0.171251800  nElectrons: 401.082524  magneticMoment: [ Abs: 2.65128  Tot: -0.16017 ]
	SubspaceRotationAdjust: set factor to 0.0728
ElecMinimize: Iter:  19  G: -1387.111895181105183  |grad|_K:  5.986e-08  alpha:  9.092e-03  linmin:  2.002e-02  t[s]:  23671.74
	Linear fluid (dielectric constant: 78.4, screening length: 5.74355 Bohr) occupying 0.749207 of unit cell:	Completed after 0 iterations at t[s]:  23684.87
	Linear fluid (dielectric constant: 78.4, screening length: 5.74355 Bohr) occupying 0.749207 of unit cell:	Completed after 0 iterations at t[s]:  23700.37
	FillingsUpdate:  mu: -0.171251800  nElectrons: 401.082522  magneticMoment: [ Abs: 2.65128  Tot: -0.16017 ]
	SubspaceRotationAdjust: set factor to 0.0518
ElecMinimize: Iter:  20  G: -1387.111895181111322  |grad|_K:  5.050e-08  alpha:  9.967e-04  linmin:  1.303e-05  t[s]:  23722.35
	Linear fluid (dielectric constant: 78.4, screening length: 5.74355 Bohr) occupying 0.749207 of unit cell:	Completed after 0 iterations at t[s]:  23735.66
ElecMinimize: 	Wrong curvature in test step, increasing alphaT to 2.990163e-03.
	Linear fluid (dielectric constant: 78.4, screening length: 5.74355 Bohr) occupying 0.749207 of unit cell:	Completed after 0 iterations at t[s]:  23748.72
	FillingsUpdate:  mu: -0.171251800  nElectrons: 401.082527  magneticMoment: [ Abs: 2.65128  Tot: -0.16017 ]
	SubspaceRotationAdjust: set factor to 0.0412
ElecMinimize: Iter:  21  G: -1387.111895182301851  |grad|_K:  4.504e-08  alpha: -3.384e-02  linmin: -1.914e-02  t[s]:  23771.03
ElecMinimize: Converged (|Delta G|<1.000000e-08 for 2 iters).
Setting wave functions to eigenvectors of Hamiltonian

# Ionic positions in lattice coordinates:
ion V  -0.000024922342113   0.000043153210428   0.501610891275846 1
ion V   0.249783629423379  -0.000005161671593   0.501499982523361 1
ion V   0.504016582095568   0.008854379532123   0.500943804489668 1
ion V   0.755135560578476   0.008787348342580   0.501072581857721 1
ion V  -0.008591986897077   0.245113272341205   0.501102852883203 1
ion V   0.249968035544927   0.249561013486625   0.500833373758848 1
ion V   0.503701609733317   0.245076921857025   0.501027542663821 1
ion V   0.750016169435303   0.250161836774227   0.500087547936956 1
ion V  -0.008680997068391   0.496137825765214   0.500969689517050 1
ion V   0.217574453881213   0.483724828969246   0.502628103757325 1
ion V   0.516338984022820   0.483796387153061   0.502654295204303 1
ion V   0.755153858506545   0.496538282569064   0.500976493420138 1
ion V   0.000083190313469   0.750248138054353   0.501490019544378 1
ion V   0.249720786078673   0.750132833931239   0.500423559767775 1
ion V   0.516411006377406   0.782557141753388   0.502596024461815 1
ion V   0.750486593993114   0.750025512585521   0.500801319541391 1
ion Se   0.166410352457713   0.082729440814166   0.588908825059936 1
ion Se   0.082795525430309   0.166141927142934   0.414664758519477 1
ion Se   0.417129101796333   0.083507518019040   0.589983592692832 1
ion Se   0.333367754693072   0.166106159166287   0.414546504155557 1
ion Se   0.668491285664331   0.086944986083769   0.589018277545691 1
ion Se   0.583734426851576   0.166952395593965   0.410150971925334 1
ion Se   0.916504822991952   0.083643845975383   0.590180453912742 1
ion Se   0.833283921468267   0.166902587467158   0.410272707609887 1
ion Se   0.161270952174007   0.328968662839639   0.590027852199557 1
ion Se   0.074659620204931   0.412247845997469   0.409456753592629 1
ion Se   0.417826518804994   0.328949347535877   0.590043358293685 1
ion Se   0.334782301895699   0.419388340284195   0.420782762108833 1
ion Se   0.668468669335425   0.331671536275754   0.588979688316612 1
ion Se   0.587733476732351   0.412368495693606   0.409483100348006 1
ion Se   0.913175837703041   0.331637865931896   0.589055476395239 1
ion Se   0.833218635768849   0.416391682706379   0.410147074399258 1
ion Se   0.161248455424527   0.582328604850133   0.589875798510058 1
ion Se   0.082578705363175   0.666614017515825   0.414432267130324 1
ion Se   0.416748373516280   0.583420262500052   0.565285044423001 1
ion Se   0.334847035693592   0.665259479964558   0.420628001583728 1
ion Se   0.671161601965620   0.582279974065777   0.590055554089161 1
ion Se   0.580726404825994   0.665322545726247   0.420725709247703 1
ion Se   0.916595557377990   0.582986583144113   0.590001817359061 1
ion Se   0.834038432500141   0.666743564900073   0.414465628825276 1
ion Se   0.166443866815812   0.833637860174574   0.588724851119876 1
ion Se   0.083294660120551   0.916776026398387   0.414276331331799 1
ion Se   0.417761728842602   0.838876251290349   0.589798429617182 1
ion Se   0.333481319931312   0.917510912768189   0.414492179002881 1
ion Se   0.671175676752303   0.838868468368990   0.589985531809136 1
ion Se   0.587907443663087   0.925522224281365   0.409442677590082 1
ion Se   0.917371783276083   0.833676766650124   0.588899336189456 1
ion Se   0.833989006474333   0.917319912753421   0.414623726524045 1
ion H   0.416794505807116   0.583470419466602   0.647506852968352 1


# Forces in Lattice coordinates:
force V   0.001881885772821  -0.002249592824472   0.012461917571814 1
force V  -0.000243790274398  -0.001075098154535   0.012954399747510 1
force V  -0.004502135379073   0.001978303970739   0.010066639384196 1
force V   0.003723394591153  -0.002507949054262   0.010810853617824 1
force V   0.001622760745034  -0.004380462607233   0.009754004255270 1
force V  -0.000100734602681   0.003478711403755   0.010708458358588 1
force V  -0.001166985997546  -0.002354880388550   0.009171606625180 1
force V   0.000033630055543  -0.000045695262173   0.013716175715117 1
force V  -0.002680515549541   0.005154943831468   0.009728121178212 1
force V  -0.001980021005286   0.000812928824147   0.009929706125558 1
force V   0.000042277893864   0.000451233548963   0.009805376243254 1
force V   0.001852636876403   0.001797738489691   0.010083403069524 1
force V   0.000578013584883   0.000271478853453   0.013583786606790 1
force V   0.002985736861613  -0.002423912044861   0.011481325463206 1
force V  -0.000423413189607   0.003356104582725   0.010899486516870 1
force V  -0.002971262841312   0.000211140810949   0.012005893076076 1
force Se   0.000476313685586   0.000019496613597   0.009716524493689 1
force Se   0.002462082798063  -0.004218165864960   0.010052610541878 1
force Se  -0.001349943552505   0.000911246358050   0.010783276245917 1
force Se  -0.002738736797004  -0.001077618242422   0.010283434733235 1
force Se   0.000694732146223  -0.001208752918737   0.003208974801359 1
force Se   0.001096498631339   0.001428184778125   0.010696727603754 1
force Se   0.001832470242749  -0.001685044457355   0.010764918519598 1
force Se  -0.000551222653724   0.000920458770861   0.009377891244133 1
force Se  -0.001461460988086   0.000357786026208   0.010305939877385 1
force Se  -0.002529992794308  -0.000231284278818   0.012406207243096 1
force Se   0.002169427200236  -0.001524749430703   0.010930140342069 1
force Se   0.000123147911751   0.000526982520570   0.013797461077511 1
force Se  -0.001027281464883   0.002078651006479   0.003753263675252 1
force Se   0.004102058995857  -0.003706767090377   0.010522926175429 1
force Se   0.001018801698649   0.000129594912787   0.003323321658021 1
force Se  -0.001225480856596  -0.000496121195408   0.010318257310343 1
force Se  -0.001363380813450  -0.000153283448589   0.009469235619877 1
force Se  -0.001578756761019   0.003884197239072   0.011755653980954 1
force Se   0.000501844438669  -0.000772609709555   0.002976122501678 1
force Se   0.001090389870006  -0.001482198337821   0.012824165113743 1
force Se   0.002378455821295  -0.002854563826592   0.008872301002750 1
force Se  -0.001235646093795  -0.000287366154256   0.014790909098434 1
force Se  -0.000466864294238   0.001134091648474   0.009881799333041 1
force Se   0.001652803848259   0.001684363717898   0.012547639878710 1
force Se  -0.000271406650343  -0.000355251858683   0.008759427503238 1
force Se   0.000123543760372   0.000237340994150   0.008788613791144 1
force Se   0.000854061379905   0.000328194822425   0.009786950250933 1
force Se  -0.004641564997294   0.001324558786807   0.010244359921694 1
force Se  -0.001394017282637   0.001826991748702   0.008394474342235 1
force Se   0.000538065432403   0.001705876058540   0.013611862723831 1
force Se   0.000726543746941  -0.001126580805922   0.008359789915255 1
force Se   0.004173612560059  -0.001784633116266   0.011282338938092 1
force H  -0.000357218406515   0.000190052850535   0.014546155903751 1

# Energy components:
   A_diel =        0.0020391597043731
   Eewald =     7393.6976025978810867
       EH =     8606.6685944846976781
     Eloc =   -17726.4227243504137732
      Enl =      104.4284497998183383
      Exc =     -632.8311890443924312
 Exc_core =      404.2863063896400604
       KE =      394.4628429404905319
  MuShift =       -0.0008797545891822
-------------------------------------
     Etot =    -1455.7089577771625954
       TS =        0.0890421116171447
-------------------------------------
        F =    -1455.7979998887797137
      muN =      -68.6861047064778916
-------------------------------------
        G =    -1387.1118951823018506

IonicMinimize: Iter:   6  G: -1387.111895182301851  |grad|_K:  7.665e-05  alpha:  1.000e+00  linmin: -1.823e-01  t[s]:  23785.35
IonicMinimize: Converged (|grad|_K<1.000000e-04).

#--- Lowdin population analysis ---
# oxidation-state V +0.553 +0.553 +0.525 +0.524 +0.525 +0.572 +0.525 +0.516 +0.525 +0.541 +0.541 +0.525 +0.553 +0.571 +0.540 +0.569
# magnetic-moments V +0.253 -0.166 -0.160 +0.073 +0.028 -0.313 +0.102 +0.029 -0.176 +0.004 +0.004 +0.124 -0.084 +0.472 -0.000 -0.390
# oxidation-state Se -0.195 -0.195 -0.171 -0.194 -0.173 -0.160 -0.170 -0.160 -0.196 -0.172 -0.196 -0.223 -0.173 -0.172 -0.172 -0.160 -0.197 -0.196 -0.039 -0.224 -0.196 -0.223 -0.170 -0.194 -0.195 -0.183 -0.197 -0.196 -0.197 -0.172 -0.196 -0.195
# magnetic-moments Se +0.005 +0.003 +0.005 +0.009 +0.001 +0.002 -0.007 -0.004 +0.004 +0.001 +0.005 +0.011 -0.004 -0.001 +0.003 +0.001 -0.005 -0.006 +0.001 -0.015 +0.006 +0.014 +0.003 +0.008 -0.003 +0.000 -0.005 -0.005 +0.005 +0.001 +0.005 +0.004
# oxidation-state H +0.122
# magnetic-moments H -0.000


Dumping 'NbTe2.fillings' ... done
Dumping 'NbTe2.wfns' ... done
Dumping 'NbTe2.fluidState' ... done
Dumping 'NbTe2.ionpos' ... done
Dumping 'NbTe2.eigenvals' ... done
End date and time: Thu Feb  4 23:23:07 2021  (Duration: 0-6:36:32.53)
Done!
