
*************** JDFTx 1.5.0  ***************

Start date and time: Sat Dec 26 04:09:54 2020
Executable jdftx_gpu with command-line: -i Charged.in -o Charged.out
Running on hosts (process indices):  amax (0-4)
Divided in process groups (process indices):  0 (0)  1 (1)  2 (2)  3 (3)  4 (4)
gpuInit: Found compatible cuda device 0 'Tesla K80'
gpuInit: Found compatible cuda device 1 'Tesla K80'
gpuInit: Found compatible cuda device 2 'Tesla K80'
gpuInit: Found compatible cuda device 3 'Tesla K80'
gpuInit: Found compatible cuda device 4 'Tesla K80'
gpuInit: Selected device 0
Resource initialization completed at t[s]:      2.96
Run totals: 5 processes, 24 threads, 5 GPUs


Encountered 1 errors while parsing input:


Command 'lattice'  with command line:
	lattice Triclinic 12.64780 12.64780 90.0000 90.0000 119.9999 
failed with message:
	Parameter <gamma> must be specified.
The correct usage of this command is described below:
	lattice  [<modification>] <lattice> <parameters...>
	| \
	<R00> <R01> <R02> \
	<R10> <R11> <R12> \
	<R20> <R21> <R22>
Specify lattice by name and parameters, or explicitly using lattice vectors.

The options for the first syntax ([<modification>] <lattice> <parameters...> scheme) are:
+ Triclinic <a> <b> <c> <alpha> <beta> <gamma>
+ [Base-Centered] Monoclinic <a> <b> <c> <beta>
+ [Base|Body|Face-Centered] Orthorhombic <a> <b> <c>
+ [Body-Centered] Tetragonal <a> <c>
+ Rhombohedral <a> <alpha>
+ Hexagonal <a> <c>
+ [Body|Face-Centered] Cubic <a>
where lengths <a>,<b>,<c> are in bohrs and angles <alpha>,<beta,<gamma> are in degrees.

Alternately, the second syntax directly specifies the transformation
matrix from lattice to Cartesian coordinates. Therefore, the columns
of this 3x3 matrix are the lattice vectors in bohrs.

NOTE: other DFT codes may specify lattice vectors in rows;
confirm that you switch them to columns if porting an input file to JDFTx.



Input parsing failed with 1 errors (run with -t for command syntax)

End date and time: Sat Dec 26 04:09:57 2020  (Duration: 0-0:00:02.97)
Failed.

*************** JDFTx 1.5.0  ***************

Start date and time: Sun Dec 27 14:43:59 2020
Executable jdftx_gpu with command-line: -i Charged.in -o Charged.out
Running on hosts (process indices):  amax (0-4)
Divided in process groups (process indices):  0 (0)  1 (1)  2 (2)  3 (3)  4 (4)
gpuInit: Found compatible cuda device 0 'Tesla K80'
gpuInit: Found compatible cuda device 1 'Tesla K80'
gpuInit: Found compatible cuda device 2 'Tesla K80'
gpuInit: Found compatible cuda device 3 'Tesla K80'
gpuInit: Found compatible cuda device 4 'Tesla K80'
gpuInit: Selected device 0
Resource initialization completed at t[s]:      2.88
Run totals: 5 processes, 24 threads, 5 GPUs


Input parsed successfully to the following command list (including defaults):

basis kpoint-dependent
cache-projectors no
coords-type Lattice
core-overlap-check none
coulomb-interaction Slab 001
coulomb-truncation-embed 0.5 0.5 0.5
davidson-band-ratio 1.1
dump End State
dump-name NbTe2.$VAR
elec-cutoff 20
elec-eigen-algo Davidson
elec-ex-corr gga-PBE
elec-initial-charge -0.500000
elec-initial-magnetization 5.000000 no
elec-smearing Gauss 0.0073499
electronic-minimize  \
	dirUpdateScheme      FletcherReeves \
	linminMethod         DirUpdateRecommended \
	nIterations          200 \
	history              15 \
	knormThreshold       0 \
	energyDiffThreshold  1e-08 \
	nEnergyDiff          2 \
	alphaTstart          1 \
	alphaTmin            1e-10 \
	updateTestStepSize   yes \
	alphaTreduceFactor   0.1 \
	alphaTincreaseFactor 3 \
	nAlphaAdjustMax      3 \
	wolfeEnergy          0.0001 \
	wolfeGradient        0.9 \
	fdTest               no
exchange-regularization WignerSeitzTruncated
fluid LinearPCM 298.000000 1.013250
fluid-anion F- 1 MeanFieldLJ \
	epsBulk 1 \
	pMol 0 \
	epsInf 1 \
	Pvap 0 \
	sigmaBulk 0 \
	Rvdw 2.24877 \
	Res 0 \
	tauNuc 343133
fluid-cation Na+ 1 MeanFieldLJ \
	epsBulk 1 \
	pMol 0 \
	epsInf 1 \
	Pvap 0 \
	sigmaBulk 0 \
	Rvdw 2.19208 \
	Res 0 \
	tauNuc 343133
fluid-ex-corr lda-TF lda-PZ
fluid-gummel-loop 10 1.000000e-05
fluid-minimize  \
	dirUpdateScheme      PolakRibiere \
	linminMethod         DirUpdateRecommended \
	nIterations          400 \
	history              15 \
	knormThreshold       1e-11 \
	energyDiffThreshold  0 \
	nEnergyDiff          2 \
	alphaTstart          1 \
	alphaTmin            1e-10 \
	updateTestStepSize   yes \
	alphaTreduceFactor   0.1 \
	alphaTincreaseFactor 3 \
	nAlphaAdjustMax      6 \
	wolfeEnergy          0.0001 \
	wolfeGradient        0.9 \
	fdTest               no
fluid-solvent H2O 55.338 ScalarEOS \
	epsBulk 78.4 \
	pMol 0.92466 \
	epsInf 1.77 \
	Pvap 1.06736e-10 \
	sigmaBulk 4.62e-05 \
	Rvdw 2.61727 \
	Res 1.42 \
	tauNuc 343133 \
	poleEl 15 7 1
forces-output-coords Positions
initial-state NbTe2.$VAR
ion Mo   0.083329995000000   0.166669989000000   0.500000000000000 1
ion Mo   0.333329995000000   0.166669989000000   0.500000000000000 1
ion Mo   0.583329957000000   0.166669989000000   0.500000000000000 1
ion Mo   0.833329995000000   0.166669989000000   0.500000000000000 1
ion Mo   0.083329990000000   0.416669995000000   0.500000000000000 1
ion Mo   0.333329999000000   0.416669995000000   0.500000000000000 1
ion Mo   0.583329962000000   0.416669995000000   0.500000000000000 1
ion Mo   0.833329962000000   0.416669995000000   0.500000000000000 1
ion Mo   0.083329999000000   0.666669989000000   0.500000000000000 1
ion Mo   0.333329999000000   0.666669989000000   0.500000000000000 1
ion Mo   0.583329961000000   0.666669989000000   0.500000000000000 1
ion Mo   0.833329961000000   0.666669989000000   0.500000000000000 1
ion Mo   0.083329998000000   0.916669983000000   0.500000000000000 1
ion Mo   0.333329998000000   0.916669983000000   0.500000000000000 1
ion Mo   0.583329960000000   0.916669983000000   0.500000000000000 1
ion Mo   0.833329960000000   0.916669983000000   0.500000000000000 1
ion S   0.166669999000000   0.083329994000000   0.586509994000000 1
ion S   0.166669999000000   0.083329994000000   0.413490006000000 1
ion S   0.416669999000000   0.083329994000000   0.586509994000000 1
ion S   0.416669999000000   0.083329994000000   0.413490006000000 1
ion S   0.666670037000000   0.083329994000000   0.586509994000000 1
ion S   0.666670037000000   0.083329994000000   0.413490006000000 1
ion S   0.916670037000000   0.083329994000000   0.586509994000000 1
ion S   0.916670037000000   0.083329994000000   0.413490006000000 1
ion S   0.166669999000000   0.333329988000000   0.586509994000000 1
ion S   0.166669999000000   0.333329988000000   0.413490006000000 1
ion S   0.416669999000000   0.333329988000000   0.586509994000000 1
ion S   0.416669999000000   0.333329988000000   0.413490006000000 1
ion S   0.666670036000000   0.333329988000000   0.586509994000000 1
ion S   0.666670036000000   0.333329988000000   0.413490006000000 1
ion S   0.916669999000000   0.333329988000000   0.586509994000000 1
ion S   0.916669999000000   0.333329988000000   0.413490006000000 1
ion S   0.166669998000000   0.583329982000000   0.586509994000000 1
ion S   0.166669998000000   0.583329982000000   0.413490006000000 1
ion S   0.416669998000000   0.583329982000000   0.586509994000000 1
ion S   0.416669998000000   0.583329982000000   0.413490006000000 1
ion S   0.666670036000000   0.583329982000000   0.586509994000000 1
ion S   0.666670036000000   0.583329982000000   0.413490006000000 1
ion S   0.916670036000000   0.583329982000000   0.586509994000000 1
ion S   0.916670036000000   0.583329982000000   0.413490006000000 1
ion S   0.166669997000000   0.833329976000000   0.586509994000000 1
ion S   0.166669997000000   0.833329976000000   0.413490006000000 1
ion S   0.416669997000000   0.833329976000000   0.586509994000000 1
ion S   0.416669997000000   0.833329976000000   0.413490006000000 1
ion S   0.666670035000000   0.833329976000000   0.586509994000000 1
ion S   0.666670035000000   0.833329976000000   0.413490006000000 1
ion S   0.916670035000000   0.833329976000000   0.586509994000000 1
ion S   0.916670035000000   0.833329976000000   0.413490006000000 1
ion-species GBRV/$ID_pbe.uspp
ion-width Ecut
ionic-minimize  \
	dirUpdateScheme      L-BFGS \
	linminMethod         DirUpdateRecommended \
	nIterations          500 \
	history              15 \
	knormThreshold       0.0001 \
	energyDiffThreshold  1e-06 \
	nEnergyDiff          2 \
	alphaTstart          1 \
	alphaTmin            1e-10 \
	updateTestStepSize   yes \
	alphaTreduceFactor   0.1 \
	alphaTincreaseFactor 3 \
	nAlphaAdjustMax      3 \
	wolfeEnergy          0.0001 \
	wolfeGradient        0.9 \
	fdTest               no
kpoint   0.000000000000   0.000000000000   0.000000000000  1.00000000000000
kpoint-folding 5 5 1 
latt-move-scale 1 1 1
latt-scale 1.88973 1.88973 1.88973 
lattice Triclinic 12.6478 12.6478 18.1298 90 90 120
lattice-minimize  \
	dirUpdateScheme      L-BFGS \
	linminMethod         DirUpdateRecommended \
	nIterations          0 \
	history              15 \
	knormThreshold       0 \
	energyDiffThreshold  1e-06 \
	nEnergyDiff          2 \
	alphaTstart          1 \
	alphaTmin            1e-10 \
	updateTestStepSize   yes \
	alphaTreduceFactor   0.1 \
	alphaTincreaseFactor 3 \
	nAlphaAdjustMax      3 \
	wolfeEnergy          0.0001 \
	wolfeGradient        0.9 \
	fdTest               no
lcao-params -1 1e-06 0.0073499
pcm-variant CANDLE
spintype z-spin
subspace-rotation-factor 1 yes
symmetries automatic
symmetry-threshold 0.0001



---------- Setting up symmetries ----------

Found 24 point-group symmetries of the bravais lattice
Found 64 space-group symmetries with basis
Applied RMS atom displacement 4.95407e-07 bohrs to make symmetries exact.

---------- Initializing the Grid ----------
R = 
[    23.9009   -11.9504          0  ]
[          0    20.6988          0  ]
[          0          0    34.2604  ]
unit cell volume = 16949.3
G =
[   0.262885   0.151776         -0  ]
[          0   0.303553          0  ]
[          0         -0   0.183395  ]
Minimum fftbox size, Smin = [  100  100  140  ]
Chosen fftbox size, S = [  100  100  140  ]

---------- Exchange Correlation functional ----------
Initalized PBE GGA exchange.
Initalized PBE GGA correlation.

---------- Setting up pseudopotentials ----------
Width of ionic core gaussian charges (only for fluid interactions / plotting) set to 0.397384

Reading pseudopotential file '/home/guoxy/vasp/jdftx-1.5.0/build/pseudopotentials/GBRV/mo_pbe.uspp':
  Title: Mo.  Created by USPP 7.3.6 on 14-9-2013
  Reference state energy: -69.261020.  14 valence electrons in orbitals:
    |400>  occupation: 2  eigenvalue: -2.465796
    |410>  occupation: 6  eigenvalue: -1.510132
    |420>  occupation: 4  eigenvalue: -0.207728
    |500>  occupation: 2  eigenvalue: -0.179278
    |510>  occupation: 0  eigenvalue: -0.052696
  lMax: 2  lLocal: 3  QijEcut: 5
  6 projectors sampled on a log grid with 629 points:
    l: 0  eig: -2.465797  rCut: 1.8
    l: 0  eig: -0.179280  rCut: 1.8
    l: 1  eig: -1.510132  rCut: 2
    l: 1  eig: 0.150000  rCut: 2
    l: 2  eig: -0.052696  rCut: 2.2
    l: 2  eig: 0.150000  rCut: 2.2
  Partial core density with radius 1.2
  Transforming core density to a uniform radial grid of dG=0.02 with 1468 points.
  Transforming local potential to a uniform radial grid of dG=0.02 with 1468 points.
  Transforming nonlocal projectors to a uniform radial grid of dG=0.02 with 432 points.
  Transforming density augmentations to a uniform radial grid of dG=0.02 with 1468 points.
  Transforming atomic orbitals to a uniform radial grid of dG=0.02 with 432 points.
  Core radius for overlap checks: 2.20 bohrs.

Reading pseudopotential file '/home/guoxy/vasp/jdftx-1.5.0/build/pseudopotentials/GBRV/s_pbe.uspp':
  Title: S.  Created by USPP 7.3.6 on 1-4-15
  Reference state energy: -11.898476.  6 valence electrons in orbitals:
    |300>  occupation: 2  eigenvalue: -0.634167
    |310>  occupation: 4  eigenvalue: -0.257568
  lMax: 2  lLocal: 3  QijEcut: 6
  6 projectors sampled on a log grid with 635 points:
    l: 0  eig: -0.634161  rCut: 1.5
    l: 0  eig: 1.500000  rCut: 1.5
    l: 1  eig: -0.257567  rCut: 1.5
    l: 1  eig: 1.500000  rCut: 1.5
    l: 2  eig: -1.000000  rCut: 1.5
    l: 2  eig: 1.500000  rCut: 1.5
  Partial core density with radius 1.15
  Transforming core density to a uniform radial grid of dG=0.02 with 1468 points.
  Transforming local potential to a uniform radial grid of dG=0.02 with 1468 points.
  Transforming nonlocal projectors to a uniform radial grid of dG=0.02 with 432 points.
  Transforming density augmentations to a uniform radial grid of dG=0.02 with 1468 points.
  Transforming atomic orbitals to a uniform radial grid of dG=0.02 with 432 points.
  Core radius for overlap checks: 1.50 bohrs.

Initialized 2 species with 48 total atoms.

Folded 1 k-points by 5x5x1 to 25 k-points.

---------- Setting up k-points, bands, fillings ----------
Adding inversion symmetry to k-mesh for non-inversion-symmetric unit cell.
Reduced to 9 k-points under symmetry. 
Computing the number of bands and number of electrons
Calculating initial fillings.
nElectrons: 415.500000   nBands: 336   nStates: 18

----- Setting up reduced wavefunction bases (one per k-point) -----
average nbasis = 72415.080 , ideal nbasis = 72408.503

---------- Setting up coulomb interaction ----------
Fluid mode embedding: using embedded box, but periodic Coulomb kernel.
(Fluid response is responsible for (approximate) separation between periodic images.)
Setting up double-sized grid for truncated Coulomb potentials:
R = 
[    23.9009   -11.9504          0  ]
[          0    20.6988          0  ]
[          0          0    68.5207  ]
unit cell volume = 33898.5
G =
[   0.262885   0.151776         -0  ]
[          0   0.303553          0  ]
[          0         -0  0.0916976  ]
Chosen fftbox size, S = [  100  100  280  ]
Integer grid location selected as the embedding center:
   Grid: [  50  50  70  ]
   Lattice: [  0.5  0.5  0.5  ]
   Cartesian: [  5.97524  10.3494  17.1302  ]
Constructing Wigner-Seitz cell: 8 faces (6 quadrilaterals, 2 hexagons)
Range-separation parameter for embedded mesh potentials due to point charges: 0.624082 bohrs.

Initializing van der Waals corrections
	NOTE: vdW corrections apply only for interactions with fluid.
	Mo:  C6:  427.91 Eh-a0^6  R0: 3.097 a0
	 S:  C6:   96.61 Eh-a0^6  R0: 3.180 a0

---------- Setting up ewald sum ----------
Optimum gaussian width for ewald sums = 6.772724 bohr.
Real space sum over 605 unit cells with max indices [  5  5  2  ]
Reciprocal space sum over 7875 terms with max indices [  7  7  17  ]

---------- Allocating electronic variables ----------
Initializing wave functions:  linear combination of atomic orbitals
Mo pseudo-atom occupations:   s ( 2 0 )  p ( 6 0 )  d ( 6 )
S pseudo-atom occupations:   s ( 2 )  p ( 4 )
	FillingsUpdate:  mu: +2.771450026  nElectrons: 415.500000  magneticMoment: [ Abs: 0.33829  Tot: +0.33751 ]
LCAOMinimize: Iter:   0  F: -1199.9856979163341748  |grad|_K:  1.595e-02  alpha:  1.000e+00
	FillingsUpdate:  mu: -1.436601466  nElectrons: 415.500000  magneticMoment: [ Abs: 0.94362  Tot: +0.90197 ]
LCAOMinimize: Iter:   1  F: -1330.8106254038727911  |grad|_K:  1.127e-02  alpha:  4.497e-01  linmin:  1.057e-01  cgtest: -9.353e-01  t[s]:    394.86
LCAOMinimize: 	Bad step direction: g.d > 0.
LCAOMinimize: 	Undoing step.
LCAOMinimize: 	Step failed: resetting search direction.
	FillingsUpdate:  mu: -1.436601466  nElectrons: 415.500000  magneticMoment: [ Abs: 0.94362  Tot: +0.90197 ]
LCAOMinimize: Iter:   2  F: -1330.8106254038727911  |grad|_K:  1.127e-02  alpha:  0.000e+00
	FillingsUpdate:  mu: -0.589033201  nElectrons: 415.500000  magneticMoment: [ Abs: 0.30278  Tot: +0.16466 ]
LCAOMinimize: Iter:   3  F: -1403.2339454703183037  |grad|_K:  6.891e-03  alpha:  1.967e-01  linmin: -3.446e-01  cgtest:  7.256e-01  t[s]:    610.77
LCAOMinimize: Encountered beta<0, resetting CG.
LCAOMinimize: 	Wrong curvature in test step, increasing alphaT to 5.902178e-01.
	FillingsUpdate:  mu: -0.332017223  nElectrons: 415.500000  magneticMoment: [ Abs: 0.45016  Tot: +0.13107 ]
LCAOMinimize: Iter:   4  F: -1422.4300097576003736  |grad|_K:  2.631e-03  alpha: -1.897e+01  linmin: -4.030e-01  cgtest:  6.088e-01  t[s]:    735.29
LCAOMinimize: Encountered beta<0, resetting CG.
	FillingsUpdate:  mu: -0.272091262  nElectrons: 415.500000  magneticMoment: [ Abs: 0.43673  Tot: +0.10854 ]
LCAOMinimize: Iter:   5  F: -1423.4387580251197960  |grad|_K:  1.282e-03  alpha:  9.283e-02  linmin: -4.382e-01  cgtest:  9.487e-01  t[s]:    860.75
LCAOMinimize: Encountered beta<0, resetting CG.
	FillingsUpdate:  mu: -0.202305476  nElectrons: 415.500000  magneticMoment: [ Abs: 0.39054  Tot: +0.07262 ]
LCAOMinimize: Iter:   6  F: -1423.7220107798714253  |grad|_K:  2.105e-04  alpha:  1.753e-01  linmin:  2.453e-01  cgtest: -4.402e-01  t[s]:    986.96
LCAOMinimize: 	Predicted alpha/alphaT>3.000000, increasing alphaT to 5.258175e-01.
	FillingsUpdate:  mu: -0.196734010  nElectrons: 415.500000  magneticMoment: [ Abs: 0.21019  Tot: +0.02367 ]
LCAOMinimize: Iter:   7  F: -1423.7416292048421838  |grad|_K:  1.443e-04  alpha:  6.071e-01  linmin: -6.173e-03  cgtest:  6.374e-01  t[s]:   1148.49
	FillingsUpdate:  mu: -0.205415089  nElectrons: 415.500000  magneticMoment: [ Abs: 0.18557  Tot: +0.02037 ]
LCAOMinimize: Iter:   8  F: -1423.7449666723071005  |grad|_K:  1.421e-05  alpha:  1.595e-01  linmin:  8.275e-02  cgtest: -1.674e-01  t[s]:   1274.17
LCAOMinimize: 	Predicted alpha/alphaT>3.000000, increasing alphaT to 4.785321e-01.
	FillingsUpdate:  mu: -0.205167678  nElectrons: 415.500000  magneticMoment: [ Abs: 0.07712  Tot: +0.00503 ]
LCAOMinimize: Iter:   9  F: -1423.7451358015709957  |grad|_K:  3.126e-06  alpha:  8.535e-01  linmin:  8.667e-04  cgtest:  2.045e-01  t[s]:   1435.54
	FillingsUpdate:  mu: -0.204974196  nElectrons: 415.500000  magneticMoment: [ Abs: 0.06561  Tot: +0.00414 ]
LCAOMinimize: Iter:  10  F: -1423.7451380572822472  |grad|_K:  1.860e-06  alpha:  2.256e-01  linmin: -4.253e-04  cgtest:  1.054e-03  t[s]:   1561.18
LCAOMinimize: 	Predicted alpha/alphaT>3.000000, increasing alphaT to 6.768754e-01.
	FillingsUpdate:  mu: -0.205103326  nElectrons: 415.500000  magneticMoment: [ Abs: 0.02202  Tot: +0.00086 ]
LCAOMinimize: Iter:  11  F: -1423.7451405892916227  |grad|_K:  5.132e-07  alpha:  7.155e-01  linmin: -9.300e-05  cgtest: -2.790e-03  t[s]:   1722.17
	FillingsUpdate:  mu: -0.205091626  nElectrons: 415.500000  magneticMoment: [ Abs: 0.00229  Tot: -0.00010 ]
LCAOMinimize: Iter:  12  F: -1423.7451408777012603  |grad|_K:  9.727e-08  alpha:  1.071e+00  linmin: -7.705e-04  cgtest:  1.621e-03  t[s]:   1847.86
	FillingsUpdate:  mu: -0.205086372  nElectrons: 415.500000  magneticMoment: [ Abs: 0.00102  Tot: -0.00001 ]
LCAOMinimize: Iter:  13  F: -1423.7451408859369621  |grad|_K:  3.055e-08  alpha:  8.535e-01  linmin:  2.094e-03  cgtest: -7.236e-03  t[s]:   1972.81
LCAOMinimize: Converged (|Delta F|<1.000000e-06 for 2 iters).
----- createFluidSolver() ----- (Fluid-side solver setup)
   Initializing fluid molecule 'H2O'
     Initializing site 'O'
       Electron density: proportional to exp(-r/0.36935)*erfc((r-0.51523)/0.36823) with norm 6.826
       Charge density: gaussian nuclear width 0.478731 with net site charge 0.826
       Polarizability: cuspless exponential with width 0.32 and norm 3.73
       Hard sphere radius: 2.57003 bohrs
       Positions in reference frame:
         [ +0.000000 +0.000000 +0.000000 ]
     Initializing site 'H'
       Electron density: proportional to exp(-r/0.34641)*erfc((r-0)/0.390882) with norm 0.587
       Charge density: gaussian nuclear width 0.377945 with net site charge -0.413
       Polarizability: cuspless exponential with width 0.39 and norm 3.3
       Positions in reference frame:
         [ +0.000000 -1.441945 +1.122523 ]
         [ +0.000000 +1.441945 +1.122523 ]
     Net charge: 0   dipole magnitude: 0.927204
     Initializing spherical shell mfKernel with radius 2.61727 Bohr
     deltaS corrections:
       site 'O': -7.54299
       site 'H': -6.83917
   Initializing fluid molecule 'Na+'
     Initializing site 'Na'
       Electron density: proportional to exp(-r/0.19682)*erfc((r-0.71491)/0.41314) with norm 8.1383
       Charge density: gaussian nuclear width 0.365347 with net site charge -1
       Hard sphere radius: 1.86327 bohrs
       Positions in reference frame:
         [ +0.000000 +0.000000 +0.000000 ]
     Net charge: -1   dipole magnitude: 0
     Initializing gaussian mfKernel with width: 1.55004 Bohr
     deltaS corrections:
       site 'Na': -22.3555
   Initializing fluid molecule 'F-'
     Initializing site 'F'
       Electron density: proportional to exp(-r/0.38886)*erfc((r-0)/0.438782) with norm 8
       Charge density: gaussian nuclear width 0.374796 with net site charge 1
       Hard sphere radius: 2.39995 bohrs
       Positions in reference frame:
         [ +0.000000 +0.000000 +0.000000 ]
     Net charge: 1   dipole magnitude: 0
     Initializing gaussian mfKernel with width: 1.59012 Bohr
     deltaS corrections:
       site 'F': -9.04335

Correction to mu due to finite nuclear width = -0.0121762
   Cavity determined by nc: 0.00142 and sigma: 0.707107
   Nonlocal vdW cavity from gaussian model electron density with norm = 8 and sigma = 0.993594 bohr
   Charge asymmetry in cavity with sensitivity pCavity = 36.5 e-bohr/Eh
   Electrostatic cavity expanded by eta = 1.46 bohrs
   Weighted density cavitation model constrained by Nbulk: 0.0049383 bohr^-3, Pvap: 3.14029 kPa, Rvdw: 2.61727 bohr and sigmaBulk: 4.62e-05 Eh/bohr^2 at T: 298 K.
   Weighted density dispersion model using vdW pair potentials with single solvent site with sqrtC6eff: 0.77 SI.


---- Citations for features of the code used in this run ----

   Software package:
      R. Sundararaman, K. Letchworth-Weaver, K.A. Schwarz, D. Gunceler, Y. Ozhabes and T.A. Arias, 'JDFTx: software for joint density-functional theory', SoftwareX 6, 278 (2017)

   gga-PBE exchange-correlation functional:
      J.P. Perdew, K. Burke and M. Ernzerhof, Phys. Rev. Lett. 77, 3865 (1996)

   Pseudopotentials:
      KF Garrity, JW Bennett, KM Rabe and D Vanderbilt, Comput. Mater. Sci. 81, 446 (2014)

   Truncated Coulomb potentials:
      R. Sundararaman and T.A. Arias, Phys. Rev. B 87, 165122 (2013)

   Van der Waals correction pair-potentials:
      S. Grimme, J. Comput. Chem. 27, 1787 (2006)

   Charge-asymmetric nonlocally-determined local-electric (CANDLE) solvation model:
      R. Sundararaman and W.A. Goddard III, J. Chem. Phys. 142, 064107 (2015)

   Total energy minimization with Auxiliary Hamiltonian:
      C. Freysoldt, S. Boeck, and J. Neugebauer, Phys. Rev. B 79, 241103(R) (2009)

This list may not be complete. Please suggest additional citations or
report any other bugs at https://github.com/shankar1729/jdftx/issues

Initialization completed successfully at t[s]:   1989.44

Fluid solver invoked on fresh (partially random / LCAO) wavefunctions
Running a vacuum solve first:

-------- Initial electronic minimization -----------
	FillingsUpdate:  mu: -0.205086372  nElectrons: 415.500000  magneticMoment: [ Abs: 0.00102  Tot: -0.00001 ]
ElecMinimize: Iter:   0  F: -1423.745140885934234  |grad|_K:  6.518e-05  alpha:  1.000e+00
	FillingsUpdate:  mu: -0.129299970  nElectrons: 415.500000  magneticMoment: [ Abs: 0.00062  Tot: +0.00001 ]
	SubspaceRotationAdjust: set factor to 1
ElecMinimize: Iter:   1  F: -1425.191387207341450  |grad|_K:  3.941e-05  alpha:  7.786e-01  linmin: -2.604e-05  t[s]:   2265.81
	FillingsUpdate:  mu: -0.143663219  nElectrons: 415.500000  magneticMoment: [ Abs: 0.00039  Tot: +0.00003 ]
	SubspaceRotationAdjust: set factor to 1.16
ElecMinimize: Iter:   2  F: -1425.555547167788518  |grad|_K:  1.843e-05  alpha:  5.368e-01  linmin: -1.158e-05  t[s]:   2434.20
	FillingsUpdate:  mu: -0.149243640  nElectrons: 415.500000  magneticMoment: [ Abs: 0.00024  Tot: +0.00002 ]
	SubspaceRotationAdjust: set factor to 1.17
ElecMinimize: Iter:   3  F: -1425.660441490545963  |grad|_K:  9.566e-06  alpha:  7.053e-01  linmin:  4.994e-05  t[s]:   2602.14
	FillingsUpdate:  mu: -0.150936262  nElectrons: 415.500000  magneticMoment: [ Abs: 0.00018  Tot: +0.00001 ]
	SubspaceRotationAdjust: set factor to 1.33
ElecMinimize: Iter:   4  F: -1425.679046845751145  |grad|_K:  6.471e-06  alpha:  4.669e-01  linmin: -1.574e-06  t[s]:   2770.34
	FillingsUpdate:  mu: -0.148612859  nElectrons: 415.500000  magneticMoment: [ Abs: 0.00012  Tot: -0.00000 ]
	SubspaceRotationAdjust: set factor to 1.38
ElecMinimize: Iter:   5  F: -1425.688731121231967  |grad|_K:  3.775e-06  alpha:  5.275e-01  linmin:  1.761e-05  t[s]:   2938.95
	FillingsUpdate:  mu: -0.153333424  nElectrons: 415.500000  magneticMoment: [ Abs: 0.00008  Tot: -0.00000 ]
	SubspaceRotationAdjust: set factor to 0.996
ElecMinimize: Iter:   6  F: -1425.691540278691718  |grad|_K:  3.395e-06  alpha:  4.531e-01  linmin:  1.074e-06  t[s]:   3107.52
	FillingsUpdate:  mu: -0.149287490  nElectrons: 415.500000  magneticMoment: [ Abs: 0.00006  Tot: -0.00000 ]
	SubspaceRotationAdjust: set factor to 0.614
ElecMinimize: Iter:   7  F: -1425.692578431550828  |grad|_K:  1.833e-06  alpha:  2.042e-01  linmin: -5.617e-06  t[s]:   3274.13
	FillingsUpdate:  mu: -0.150540394  nElectrons: 415.500000  magneticMoment: [ Abs: 0.00004  Tot: -0.00000 ]
	SubspaceRotationAdjust: set factor to 0.895
ElecMinimize: Iter:   8  F: -1425.693246130921125  |grad|_K:  1.014e-06  alpha:  4.516e-01  linmin:  5.079e-06  t[s]:   3442.49
	FillingsUpdate:  mu: -0.152280589  nElectrons: 415.500000  magneticMoment: [ Abs: 0.00002  Tot: -0.00000 ]
	SubspaceRotationAdjust: set factor to 0.741
ElecMinimize: Iter:   9  F: -1425.693457232544006  |grad|_K:  7.347e-07  alpha:  4.686e-01  linmin:  2.942e-06  t[s]:   3610.37
	FillingsUpdate:  mu: -0.151350077  nElectrons: 415.500000  magneticMoment: [ Abs: 0.00001  Tot: +0.00000 ]
	SubspaceRotationAdjust: set factor to 0.561
ElecMinimize: Iter:  10  F: -1425.693538254308123  |grad|_K:  4.485e-07  alpha:  3.423e-01  linmin: -3.368e-07  t[s]:   3778.73
	FillingsUpdate:  mu: -0.151485631  nElectrons: 415.500000  magneticMoment: [ Abs: 0.00001  Tot: +0.00000 ]
	SubspaceRotationAdjust: set factor to 0.648
ElecMinimize: Iter:  11  F: -1425.693588602089676  |grad|_K:  2.662e-07  alpha:  5.707e-01  linmin:  2.893e-06  t[s]:   3946.77
	FillingsUpdate:  mu: -0.151568107  nElectrons: 415.500000  magneticMoment: [ Abs: 0.00001  Tot: +0.00000 ]
	SubspaceRotationAdjust: set factor to 0.673
ElecMinimize: Iter:  12  F: -1425.693601718265427  |grad|_K:  1.838e-07  alpha:  4.227e-01  linmin:  2.975e-08  t[s]:   4114.40
	FillingsUpdate:  mu: -0.151442778  nElectrons: 415.500000  magneticMoment: [ Abs: 0.00000  Tot: +0.00000 ]
	SubspaceRotationAdjust: set factor to 0.663
ElecMinimize: Iter:  13  F: -1425.693609645301876  |grad|_K:  1.053e-07  alpha:  5.349e-01  linmin:  3.355e-07  t[s]:   4283.17
	FillingsUpdate:  mu: -0.151562175  nElectrons: 415.500000  magneticMoment: [ Abs: 0.00000  Tot: +0.00000 ]
	SubspaceRotationAdjust: set factor to 0.602
ElecMinimize: Iter:  14  F: -1425.693612051098398  |grad|_K:  7.721e-08  alpha:  4.941e-01  linmin:  8.974e-08  t[s]:   4451.61
	FillingsUpdate:  mu: -0.151507763  nElectrons: 415.500000  magneticMoment: [ Abs: 0.00000  Tot: +0.00000 ]
	SubspaceRotationAdjust: set factor to 0.621
ElecMinimize: Iter:  15  F: -1425.693613201536436  |grad|_K:  4.513e-08  alpha:  4.398e-01  linmin:  8.894e-08  t[s]:   4619.64
	FillingsUpdate:  mu: -0.151491657  nElectrons: 415.500000  magneticMoment: [ Abs: 0.00000  Tot: +0.00000 ]
	SubspaceRotationAdjust: set factor to 0.689
ElecMinimize: Iter:  16  F: -1425.693613736480074  |grad|_K:  3.071e-08  alpha:  5.988e-01  linmin:  9.127e-08  t[s]:   4787.99
	FillingsUpdate:  mu: -0.151530061  nElectrons: 415.500000  magneticMoment: [ Abs: 0.00000  Tot: +0.00000 ]
	SubspaceRotationAdjust: set factor to 0.577
ElecMinimize: Iter:  17  F: -1425.693613935144185  |grad|_K:  2.310e-08  alpha:  4.803e-01  linmin: -1.985e-08  t[s]:   4956.02
	FillingsUpdate:  mu: -0.151499125  nElectrons: 415.500000  magneticMoment: [ Abs: 0.00000  Tot: +0.00000 ]
	SubspaceRotationAdjust: set factor to 0.508
ElecMinimize: Iter:  18  F: -1425.693614048995187  |grad|_K:  1.426e-08  alpha:  4.861e-01  linmin:  7.214e-08  t[s]:   5124.11
	FillingsUpdate:  mu: -0.151502928  nElectrons: 415.500000  magneticMoment: [ Abs: 0.00000  Tot: -0.00000 ]
	SubspaceRotationAdjust: set factor to 0.567
ElecMinimize: Iter:  19  F: -1425.693614103444361  |grad|_K:  1.039e-08  alpha:  6.106e-01  linmin:  5.591e-08  t[s]:   5292.49
	FillingsUpdate:  mu: -0.151513075  nElectrons: 415.500000  magneticMoment: [ Abs: 0.00000  Tot: -0.00000 ]
	SubspaceRotationAdjust: set factor to 0.565
ElecMinimize: Iter:  20  F: -1425.693614126605326  |grad|_K:  6.801e-09  alpha:  4.884e-01  linmin:  1.497e-08  t[s]:   5460.64
	FillingsUpdate:  mu: -0.151507935  nElectrons: 415.500000  magneticMoment: [ Abs: 0.00000  Tot: -0.00000 ]
	SubspaceRotationAdjust: set factor to 0.577
ElecMinimize: Iter:  21  F: -1425.693614136892165  |grad|_K:  4.672e-09  alpha:  5.070e-01  linmin: -3.108e-08  t[s]:   5628.96
	FillingsUpdate:  mu: -0.151508549  nElectrons: 415.500000  magneticMoment: [ Abs: 0.00000  Tot: -0.00000 ]
	SubspaceRotationAdjust: set factor to 0.659
ElecMinimize: Iter:  22  F: -1425.693614142468732  |grad|_K:  2.863e-09  alpha:  5.800e-01  linmin: -7.630e-08  t[s]:   5797.13
	FillingsUpdate:  mu: -0.151510627  nElectrons: 415.500000  magneticMoment: [ Abs: 0.00000  Tot: -0.00000 ]
	SubspaceRotationAdjust: set factor to 0.652
ElecMinimize: Iter:  23  F: -1425.693614144585354  |grad|_K:  2.124e-09  alpha:  5.834e-01  linmin: -1.309e-07  t[s]:   5964.84
ElecMinimize: Converged (|Delta F|<1.000000e-08 for 2 iters).
Setting wave functions to eigenvectors of Hamiltonian
Vacuum energy after initial minimize, F = -1425.693614144585354

	Linear fluid (dielectric constant: 78.4, screening length: 5.74355 Bohr) occupying 0.755609 of unit cell:	Completed after 14 iterations at t[s]:   6002.43

-------- Electronic minimization -----------
	Linear fluid (dielectric constant: 78.4, screening length: 5.74355 Bohr) occupying 0.755609 of unit cell:	Completed after 0 iterations at t[s]:   6043.10
	FillingsUpdate:  mu: -0.214865234  nElectrons: 415.500000  magneticMoment: [ Abs: 0.00000  Tot: -0.00000 ]
ElecMinimize: Iter:   0  F: -1425.643314720845410  |grad|_K:  7.474e-07  alpha:  1.000e+00
	Linear fluid (dielectric constant: 78.4, screening length: 5.74355 Bohr) occupying 0.756018 of unit cell:	Completed after 9 iterations at t[s]:   6173.27
	Linear fluid (dielectric constant: 78.4, screening length: 5.74355 Bohr) occupying 0.755781 of unit cell:	Completed after 10 iterations at t[s]:   6226.37
	FillingsUpdate:  mu: -0.212439588  nElectrons: 415.500000  magneticMoment: [ Abs: 0.00000  Tot: -0.00000 ]
	SubspaceRotationAdjust: set factor to 0.498
ElecMinimize: Iter:   1  F: -1425.643417006580421  |grad|_K:  5.472e-07  alpha:  4.178e-01  linmin:  3.918e-07  t[s]:   6301.00
	Linear fluid (dielectric constant: 78.4, screening length: 5.74355 Bohr) occupying 0.755959 of unit cell:	Completed after 7 iterations at t[s]:   6353.25
	Linear fluid (dielectric constant: 78.4, screening length: 5.74355 Bohr) occupying 0.756001 of unit cell:	Completed after 2 iterations at t[s]:   6405.26
	FillingsUpdate:  mu: -0.212260970  nElectrons: 415.500000  magneticMoment: [ Abs: 0.00001  Tot: -0.00000 ]
	SubspaceRotationAdjust: set factor to 0.577
ElecMinimize: Iter:   2  F: -1425.643485086828832  |grad|_K:  2.457e-07  alpha:  5.174e-01  linmin: -1.526e-06  t[s]:   6477.62
	Linear fluid (dielectric constant: 78.4, screening length: 5.74355 Bohr) occupying 0.756072 of unit cell:	Completed after 3 iterations at t[s]:   6529.26
	Linear fluid (dielectric constant: 78.4, screening length: 5.74355 Bohr) occupying 0.756066 of unit cell:	Completed after 2 iterations at t[s]:   6580.06
	FillingsUpdate:  mu: -0.212201472  nElectrons: 415.500000  magneticMoment: [ Abs: 0.00001  Tot: -0.00000 ]
	SubspaceRotationAdjust: set factor to 0.691
ElecMinimize: Iter:   3  F: -1425.643497649155051  |grad|_K:  1.101e-07  alpha:  4.726e-01  linmin: -2.982e-06  t[s]:   6652.78
	Linear fluid (dielectric constant: 78.4, screening length: 5.74355 Bohr) occupying 0.756087 of unit cell:	Completed after 2 iterations at t[s]:   6704.55
	Linear fluid (dielectric constant: 78.4, screening length: 5.74355 Bohr) occupying 0.756100 of unit cell:	Completed after 1 iterations at t[s]:   6755.21
	FillingsUpdate:  mu: -0.212250779  nElectrons: 415.500000  magneticMoment: [ Abs: 0.00000  Tot: -0.00000 ]
	SubspaceRotationAdjust: set factor to 0.752
ElecMinimize: Iter:   4  F: -1425.643501864318523  |grad|_K:  5.494e-08  alpha:  7.760e-01  linmin: -1.236e-06  t[s]:   6827.61
	Linear fluid (dielectric constant: 78.4, screening length: 5.74355 Bohr) occupying 0.756108 of unit cell:	Completed after 2 iterations at t[s]:   6879.85
	Linear fluid (dielectric constant: 78.4, screening length: 5.74355 Bohr) occupying 0.756106 of unit cell:	Completed after 0 iterations at t[s]:   6930.54
	FillingsUpdate:  mu: -0.212167043  nElectrons: 415.500000  magneticMoment: [ Abs: 0.00000  Tot: -0.00000 ]
	SubspaceRotationAdjust: set factor to 0.634
ElecMinimize: Iter:   5  F: -1425.643502668090605  |grad|_K:  5.883e-08  alpha:  5.859e-01  linmin:  9.305e-06  t[s]:   7002.18
	Linear fluid (dielectric constant: 78.4, screening length: 5.74355 Bohr) occupying 0.756108 of unit cell:	Completed after 2 iterations at t[s]:   7053.97
	Linear fluid (dielectric constant: 78.4, screening length: 5.74355 Bohr) occupying 0.756107 of unit cell:	Completed after 2 iterations at t[s]:   7105.26
	FillingsUpdate:  mu: -0.212240043  nElectrons: 415.500000  magneticMoment: [ Abs: 0.00000  Tot: -0.00000 ]
	SubspaceRotationAdjust: set factor to 0.453
ElecMinimize: Iter:   6  F: -1425.643503056260670  |grad|_K:  3.196e-08  alpha:  3.244e-01  linmin: -9.432e-07  t[s]:   7177.74
	Linear fluid (dielectric constant: 78.4, screening length: 5.74355 Bohr) occupying 0.756106 of unit cell:	Completed after 0 iterations at t[s]:   7229.08
	Linear fluid (dielectric constant: 78.4, screening length: 5.74355 Bohr) occupying 0.756106 of unit cell:	Completed after 0 iterations at t[s]:   7278.69
	FillingsUpdate:  mu: -0.212239767  nElectrons: 415.500000  magneticMoment: [ Abs: 0.00000  Tot: -0.00000 ]
	SubspaceRotationAdjust: set factor to 0.553
ElecMinimize: Iter:   7  F: -1425.643503256934537  |grad|_K:  2.471e-08  alpha:  4.442e-01  linmin:  7.930e-08  t[s]:   7350.60
	Linear fluid (dielectric constant: 78.4, screening length: 5.74355 Bohr) occupying 0.756105 of unit cell:	Completed after 2 iterations at t[s]:   7402.11
	Linear fluid (dielectric constant: 78.4, screening length: 5.74355 Bohr) occupying 0.756105 of unit cell:	Completed after 0 iterations at t[s]:   7452.10
	FillingsUpdate:  mu: -0.212173498  nElectrons: 415.500000  magneticMoment: [ Abs: 0.00000  Tot: -0.00000 ]
	SubspaceRotationAdjust: set factor to 0.484
ElecMinimize: Iter:   8  F: -1425.643503294151742  |grad|_K:  2.728e-08  alpha:  2.285e-01  linmin:  6.293e-06  t[s]:   7524.68
	Linear fluid (dielectric constant: 78.4, screening length: 5.74355 Bohr) occupying 0.756104 of unit cell:	Completed after 0 iterations at t[s]:   7576.02
	Linear fluid (dielectric constant: 78.4, screening length: 5.74355 Bohr) occupying 0.756104 of unit cell:	Completed after 0 iterations at t[s]:   7626.01
	FillingsUpdate:  mu: -0.212173405  nElectrons: 415.500000  magneticMoment: [ Abs: 0.00000  Tot: -0.00000 ]
	SubspaceRotationAdjust: set factor to 0.635
ElecMinimize: Iter:   9  F: -1425.643503364466142  |grad|_K:  2.482e-08  alpha:  2.302e-01  linmin:  8.665e-09  t[s]:   7697.96
	Linear fluid (dielectric constant: 78.4, screening length: 5.74355 Bohr) occupying 0.756102 of unit cell:	Completed after 2 iterations at t[s]:   7749.80
	Linear fluid (dielectric constant: 78.4, screening length: 5.74355 Bohr) occupying 0.756103 of unit cell:	Completed after 0 iterations at t[s]:   7800.41
	FillingsUpdate:  mu: -0.212223861  nElectrons: 415.500000  magneticMoment: [ Abs: 0.00000  Tot: -0.00000 ]
	SubspaceRotationAdjust: set factor to 0.46
ElecMinimize: Iter:  10  F: -1425.643503364624166  |grad|_K:  2.165e-08  alpha:  7.548e-02  linmin:  3.075e-05  t[s]:   7872.10
	Linear fluid (dielectric constant: 78.4, screening length: 5.74355 Bohr) occupying 0.756103 of unit cell:	Completed after 0 iterations at t[s]:   7923.21
	Linear fluid (dielectric constant: 78.4, screening length: 5.74355 Bohr) occupying 0.756103 of unit cell:	Completed after 0 iterations at t[s]:   7972.90
	FillingsUpdate:  mu: -0.212223920  nElectrons: 415.500000  magneticMoment: [ Abs: 0.00000  Tot: +0.00000 ]
	SubspaceRotationAdjust: set factor to 0.61
ElecMinimize: Iter:  11  F: -1425.643503379705635  |grad|_K:  1.751e-08  alpha:  1.665e-01  linmin: -3.005e-08  t[s]:   8044.97
	Linear fluid (dielectric constant: 78.4, screening length: 5.74355 Bohr) occupying 0.756102 of unit cell:	Completed after 0 iterations at t[s]:   8096.31
	Linear fluid (dielectric constant: 78.4, screening length: 5.74355 Bohr) occupying 0.756102 of unit cell:	Completed after 0 iterations at t[s]:   8145.91
	FillingsUpdate:  mu: -0.212224203  nElectrons: 415.500000  magneticMoment: [ Abs: 0.00000  Tot: +0.00000 ]
	SubspaceRotationAdjust: set factor to 0.752
ElecMinimize: Iter:  12  F: -1425.643503417302099  |grad|_K:  1.810e-08  alpha:  2.794e-01  linmin:  7.763e-08  t[s]:   8217.90
	Linear fluid (dielectric constant: 78.4, screening length: 5.74355 Bohr) occupying 0.756101 of unit cell:	Completed after 1 iterations at t[s]:   8269.54
	Linear fluid (dielectric constant: 78.4, screening length: 5.74355 Bohr) occupying 0.756102 of unit cell:	Completed after 0 iterations at t[s]:   8319.81
ElecMinimize: 	Step increased F by 2.203774e-08, reducing alpha to 3.704518e-03.
	Linear fluid (dielectric constant: 78.4, screening length: 5.74355 Bohr) occupying 0.756102 of unit cell:	Completed after 1 iterations at t[s]:   8435.17
ElecMinimize: 	Step increased F by 5.924585e-08, reducing alpha to 3.704518e-04.
	Linear fluid (dielectric constant: 78.4, screening length: 5.74355 Bohr) occupying 0.756102 of unit cell:	Completed after 0 iterations at t[s]:   8550.15
ElecMinimize: 	Step increased F by 5.848028e-08, reducing alpha to 3.704518e-05.
ElecMinimize: 	Step failed to reduce F after 3 attempts. Quitting step.
ElecMinimize: 	Undoing step.
	Linear fluid (dielectric constant: 78.4, screening length: 5.74355 Bohr) occupying 0.756102 of unit cell:	Completed after 0 iterations at t[s]:   8664.65
ElecMinimize: 	Step failed: resetting search direction.
	FillingsUpdate:  mu: -0.212184834  nElectrons: 415.500000  magneticMoment: [ Abs: 0.00000  Tot: +0.00000 ]
	SubspaceRotationAdjust: set factor to 0.533
ElecMinimize: Iter:  13  F: -1425.643503358845919  |grad|_K:  1.685e-08  alpha:  3.705e-05
	Linear fluid (dielectric constant: 78.4, screening length: 5.74355 Bohr) occupying 0.756102 of unit cell:	Completed after 0 iterations at t[s]:   8787.49
	Linear fluid (dielectric constant: 78.4, screening length: 5.74355 Bohr) occupying 0.756102 of unit cell:	Completed after 0 iterations at t[s]:   8837.40
	FillingsUpdate:  mu: -0.212184231  nElectrons: 415.500000  magneticMoment: [ Abs: 0.00000  Tot: +0.00000 ]
	SubspaceRotationAdjust: set factor to 0.778
ElecMinimize: Iter:  14  F: -1425.643503419163380  |grad|_K:  1.420e-08  alpha:  4.842e-01  linmin: -7.045e-09  t[s]:   8907.53
	Linear fluid (dielectric constant: 78.4, screening length: 5.74355 Bohr) occupying 0.756101 of unit cell:	Completed after 2 iterations at t[s]:   8959.45
	Linear fluid (dielectric constant: 78.4, screening length: 5.74355 Bohr) occupying 0.756102 of unit cell:	Completed after 0 iterations at t[s]:   9010.08
ElecMinimize: 	Step increased F by 1.115086e-08, reducing alpha to 5.826156e-03.
	Linear fluid (dielectric constant: 78.4, screening length: 5.74355 Bohr) occupying 0.756102 of unit cell:	Completed after 2 iterations at t[s]:   9125.91
ElecMinimize: 	Step increased F by 7.418953e-08, reducing alpha to 5.826156e-04.
	Linear fluid (dielectric constant: 78.4, screening length: 5.74355 Bohr) occupying 0.756102 of unit cell:	Completed after 0 iterations at t[s]:   9241.99
ElecMinimize: 	Step increased F by 7.325866e-08, reducing alpha to 5.826156e-05.
ElecMinimize: 	Step failed to reduce F after 3 attempts. Quitting step.
ElecMinimize: 	Undoing step.
	Linear fluid (dielectric constant: 78.4, screening length: 5.74355 Bohr) occupying 0.756102 of unit cell:	Completed after 0 iterations at t[s]:   9357.61
ElecMinimize: 	Step failed: resetting search direction.
	FillingsUpdate:  mu: -0.212238100  nElectrons: 415.500000  magneticMoment: [ Abs: 0.00000  Tot: +0.00000 ]
	SubspaceRotationAdjust: set factor to 0.657
ElecMinimize: Iter:  15  F: -1425.643503345923818  |grad|_K:  2.428e-08  alpha:  5.826e-05
	Linear fluid (dielectric constant: 78.4, screening length: 5.74355 Bohr) occupying 0.756102 of unit cell:	Completed after 1 iterations at t[s]:   9481.83
	Linear fluid (dielectric constant: 78.4, screening length: 5.74355 Bohr) occupying 0.756102 of unit cell:	Completed after 1 iterations at t[s]:   9532.38
	FillingsUpdate:  mu: -0.212186106  nElectrons: 415.500000  magneticMoment: [ Abs: 0.00000  Tot: +0.00000 ]
	SubspaceRotationAdjust: set factor to 0.282
ElecMinimize: Iter:  16  F: -1425.643503409698496  |grad|_K:  1.056e-08  alpha:  1.928e-01  linmin:  1.873e-04  t[s]:   9605.07
	Linear fluid (dielectric constant: 78.4, screening length: 5.74355 Bohr) occupying 0.756102 of unit cell:	Completed after 0 iterations at t[s]:   9656.71
ElecMinimize: 	Predicted alpha/alphaT>3.000000, increasing alphaT to 5.784830e-01.
	Linear fluid (dielectric constant: 78.4, screening length: 5.74355 Bohr) occupying 0.756102 of unit cell:	Completed after 1 iterations at t[s]:   9706.27
	Linear fluid (dielectric constant: 78.4, screening length: 5.74355 Bohr) occupying 0.756102 of unit cell:	Completed after 0 iterations at t[s]:   9757.48
ElecMinimize: 	Step increased F by 9.127007e-09, reducing alpha to 2.240486e-02.
	Linear fluid (dielectric constant: 78.4, screening length: 5.74355 Bohr) occupying 0.756102 of unit cell:	Completed after 0 iterations at t[s]:   9872.65
ElecMinimize: 	Step increased F by 1.226067e-08, reducing alpha to 2.240486e-03.
	Linear fluid (dielectric constant: 78.4, screening length: 5.74355 Bohr) occupying 0.756102 of unit cell:	Completed after 0 iterations at t[s]:   9987.59
ElecMinimize: 	Step increased F by 1.276703e-08, reducing alpha to 2.240486e-04.
ElecMinimize: 	Step failed to reduce F after 3 attempts. Quitting step.
ElecMinimize: 	Undoing step.
	Linear fluid (dielectric constant: 78.4, screening length: 5.74355 Bohr) occupying 0.756102 of unit cell:	Completed after 0 iterations at t[s]:  10102.84
ElecMinimize: 	Step failed: resetting search direction.
	FillingsUpdate:  mu: -0.212203017  nElectrons: 415.500000  magneticMoment: [ Abs: 0.00000  Tot: +0.00000 ]
	SubspaceRotationAdjust: set factor to 0.606
ElecMinimize: Iter:  17  F: -1425.643503396902361  |grad|_K:  3.717e-09  alpha:  2.240e-04
	Linear fluid (dielectric constant: 78.4, screening length: 5.74355 Bohr) occupying 0.756102 of unit cell:	Completed after 0 iterations at t[s]:  10226.45
ElecMinimize: 	Predicted alpha/alphaT>3.000000, increasing alphaT to 5.784830e-01.
	Linear fluid (dielectric constant: 78.4, screening length: 5.74355 Bohr) occupying 0.756102 of unit cell:	Completed after 0 iterations at t[s]:  10275.88
	Linear fluid (dielectric constant: 78.4, screening length: 5.74355 Bohr) occupying 0.756102 of unit cell:	Completed after 0 iterations at t[s]:  10326.65
	FillingsUpdate:  mu: -0.212202997  nElectrons: 415.500000  magneticMoment: [ Abs: 0.00000  Tot: +0.00000 ]
	SubspaceRotationAdjust: set factor to 0.649
ElecMinimize: Iter:  18  F: -1425.643503402277929  |grad|_K:  4.501e-09  alpha:  8.777e-01  linmin: -2.106e-07  t[s]:  10398.93
	Linear fluid (dielectric constant: 78.4, screening length: 5.74355 Bohr) occupying 0.756102 of unit cell:	Completed after 0 iterations at t[s]:  10450.36
	Linear fluid (dielectric constant: 78.4, screening length: 5.74355 Bohr) occupying 0.756102 of unit cell:	Completed after 0 iterations at t[s]:  10500.51
	FillingsUpdate:  mu: -0.212202867  nElectrons: 415.500000  magneticMoment: [ Abs: 0.00000  Tot: +0.00000 ]
	SubspaceRotationAdjust: set factor to 0.804
ElecMinimize: Iter:  19  F: -1425.643503407110529  |grad|_K:  2.586e-09  alpha:  5.420e-01  linmin: -1.692e-09  t[s]:  10572.64
ElecMinimize: Converged (|Delta F|<1.000000e-08 for 2 iters).
Setting wave functions to eigenvectors of Hamiltonian
Single-point solvation energy estimate, DeltaF = +0.050110737474824

# Ionic positions in lattice coordinates:
ion Mo   0.083329990729167   0.166669999041667   0.500000000000000 1
ion Mo   0.333329990729167   0.166669999041667   0.500000000000000 1
ion Mo   0.583329990729167   0.166669999041667   0.500000000000000 1
ion Mo   0.833329990729167   0.166669999041667   0.500000000000000 1
ion Mo   0.083329990729167   0.416669999041667   0.500000000000000 1
ion Mo   0.333329990729167   0.416669999041667   0.500000000000000 1
ion Mo   0.583329990729167   0.416669999041667   0.500000000000000 1
ion Mo   0.833329990729167   0.416669999041667   0.500000000000000 1
ion Mo   0.083329990729167   0.666669999041667   0.500000000000000 1
ion Mo   0.333329990729167   0.666669999041667   0.500000000000000 1
ion Mo   0.583329990729167   0.666669999041667   0.500000000000000 1
ion Mo   0.833329990729167   0.666669999041667   0.500000000000000 1
ion Mo   0.083329990729167   0.916669999041667   0.500000000000000 1
ion Mo   0.333329990729167   0.916669999041667   0.500000000000000 1
ion Mo   0.583329990729167   0.916669999041667   0.500000000000000 1
ion Mo   0.833329990729167   0.916669999041667   0.500000000000000 1
ion S   0.166670009791667   0.083329979979167   0.586509994000000 1
ion S   0.166670009791667   0.083329979979167   0.413490006000000 1
ion S   0.416670009791667   0.083329979979167   0.586509994000000 1
ion S   0.416670009791667   0.083329979979167   0.413490006000000 1
ion S   0.666670009791667   0.083329979979167   0.586509994000000 1
ion S   0.666670009791667   0.083329979979167   0.413490006000000 1
ion S   0.916670009791667   0.083329979979167   0.586509994000000 1
ion S   0.916670009791667   0.083329979979167   0.413490006000000 1
ion S   0.166670009791667   0.333329979979167   0.586509994000000 1
ion S   0.166670009791667   0.333329979979167   0.413490006000000 1
ion S   0.416670009791667   0.333329979979167   0.586509994000000 1
ion S   0.416670009791667   0.333329979979167   0.413490006000000 1
ion S   0.666670009791667   0.333329979979167   0.586509994000000 1
ion S   0.666670009791667   0.333329979979167   0.413490006000000 1
ion S   0.916670009791667   0.333329979979167   0.586509994000000 1
ion S   0.916670009791667   0.333329979979167   0.413490006000000 1
ion S   0.166670009791667   0.583329979979167   0.586509994000000 1
ion S   0.166670009791667   0.583329979979167   0.413490006000000 1
ion S   0.416670009791667   0.583329979979167   0.586509994000000 1
ion S   0.416670009791667   0.583329979979167   0.413490006000000 1
ion S   0.666670009791667   0.583329979979167   0.586509994000000 1
ion S   0.666670009791667   0.583329979979167   0.413490006000000 1
ion S   0.916670009791667   0.583329979979167   0.586509994000000 1
ion S   0.916670009791667   0.583329979979167   0.413490006000000 1
ion S   0.166670009791667   0.833329979979167   0.586509994000000 1
ion S   0.166670009791667   0.833329979979167   0.413490006000000 1
ion S   0.416670009791667   0.833329979979167   0.586509994000000 1
ion S   0.416670009791667   0.833329979979167   0.413490006000000 1
ion S   0.666670009791667   0.833329979979167   0.586509994000000 1
ion S   0.666670009791667   0.833329979979167   0.413490006000000 1
ion S   0.916670009791667   0.833329979979167   0.586509994000000 1
ion S   0.916670009791667   0.833329979979167   0.413490006000000 1


# Forces in Lattice coordinates:
force Mo   0.000637473494414  -0.000637473494414  -0.000000000000000 1
force Mo   0.000637473494414  -0.000637473494414   0.000000000000000 1
force Mo   0.000637473494414  -0.000637473494414  -0.000000000000000 1
force Mo   0.000637473494414  -0.000637473494414  -0.000000000000000 1
force Mo   0.000637473494414  -0.000637473494414  -0.000000000000000 1
force Mo   0.000637473494414  -0.000637473494414  -0.000000000000000 1
force Mo   0.000637473494414  -0.000637473494414   0.000000000000000 1
force Mo   0.000637473494414  -0.000637473494414  -0.000000000000000 1
force Mo   0.000637473494414  -0.000637473494414   0.000000000000000 1
force Mo   0.000637473494414  -0.000637473494414   0.000000000000000 1
force Mo   0.000637473494414  -0.000637473494414  -0.000000000000000 1
force Mo   0.000637473494414  -0.000637473494414   0.000000000000000 1
force Mo   0.000637473494414  -0.000637473494414   0.000000000000000 1
force Mo   0.000637473494414  -0.000637473494414  -0.000000000000000 1
force Mo   0.000637473494414  -0.000637473494414   0.000000000000000 1
force Mo   0.000637473494414  -0.000637473494414  -0.000000000000000 1
force S  -0.000539410116540   0.000539410116540   0.004828821827404 1
force S  -0.000539410116540   0.000539410116540  -0.004828821827178 1
force S  -0.000539410116540   0.000539410116540   0.004828821827290 1
force S  -0.000539410116540   0.000539410116540  -0.004828821827177 1
force S  -0.000539410116540   0.000539410116540   0.004828821827404 1
force S  -0.000539410116540   0.000539410116540  -0.004828821827176 1
force S  -0.000539410116540   0.000539410116540   0.004828821827290 1
force S  -0.000539410116540   0.000539410116540  -0.004828821827290 1
force S  -0.000539410116540   0.000539410116540   0.004828821827175 1
force S  -0.000539410116540   0.000539410116540  -0.004828821827062 1
force S  -0.000539410116540   0.000539410116540   0.004828821827290 1
force S  -0.000539410116540   0.000539410116540  -0.004828821827061 1
force S  -0.000539410116540   0.000539410116540   0.004828821827403 1
force S  -0.000539410116540   0.000539410116540  -0.004828821827061 1
force S  -0.000539410116540   0.000539410116540   0.004828821827290 1
force S  -0.000539410116540   0.000539410116540  -0.004828821827176 1
force S  -0.000539410116540   0.000539410116540   0.004828821827291 1
force S  -0.000539410116540   0.000539410116540  -0.004828821827176 1
force S  -0.000539410116540   0.000539410116540   0.004828821827404 1
force S  -0.000539410116540   0.000539410116540  -0.004828821827060 1
force S  -0.000539410116540   0.000539410116540   0.004828821827518 1
force S  -0.000539410116540   0.000539410116540  -0.004828821827175 1
force S  -0.000539410116540   0.000539410116540   0.004828821827404 1
force S  -0.000539410116540   0.000539410116540  -0.004828821827289 1
force S  -0.000539410116540   0.000539410116540   0.004828821827178 1
force S  -0.000539410116540   0.000539410116540  -0.004828821827179 1
force S  -0.000539410116540   0.000539410116540   0.004828821827405 1
force S  -0.000539410116540   0.000539410116540  -0.004828821827177 1
force S  -0.000539410116540   0.000539410116540   0.004828821827517 1
force S  -0.000539410116540   0.000539410116540  -0.004828821827064 1
force S  -0.000539410116540   0.000539410116540   0.004828821827405 1
force S  -0.000539410116540   0.000539410116540  -0.004828821827064 1

# Energy components:
   A_diel =        0.0438349780259257
   Eewald =     8821.5981260505177488
       EH =     9988.1515324379743106
     Eloc =   -20638.9863859963152208
      Enl =      260.8596947168334736
      Exc =     -290.2097680445148171
 Exc_core =       76.0956977204624962
       KE =      356.8079924797325475
  MuShift =        0.0060881081552771
-------------------------------------
     Etot =    -1425.6331875491289338
       TS =        0.0103158579817009
-------------------------------------
        F =    -1425.6435034071105292

IonicMinimize: Iter:   0  F: -1425.643503407110529  |grad|_K:  6.822e-05  t[s]:  10598.71
IonicMinimize: Converged (|grad|_K<1.000000e-04).

#--- Lowdin population analysis ---
# oxidation-state Mo -0.500 -0.500 -0.500 -0.500 -0.500 -0.500 -0.500 -0.500 -0.500 -0.500 -0.500 -0.500 -0.500 -0.500 -0.500 -0.500
# magnetic-moments Mo +0.000 +0.000 +0.000 +0.000 +0.000 +0.000 +0.000 +0.000 +0.000 +0.000 +0.000 +0.000 +0.000 +0.000 +0.000 +0.000
# oxidation-state S +0.333 +0.333 +0.333 +0.333 +0.333 +0.333 +0.333 +0.333 +0.333 +0.333 +0.333 +0.333 +0.333 +0.333 +0.333 +0.333 +0.333 +0.333 +0.333 +0.333 +0.333 +0.333 +0.333 +0.333 +0.333 +0.333 +0.333 +0.333 +0.333 +0.333 +0.333 +0.333
# magnetic-moments S -0.000 -0.000 -0.000 -0.000 -0.000 -0.000 -0.000 -0.000 -0.000 -0.000 -0.000 -0.000 -0.000 -0.000 -0.000 -0.000 -0.000 -0.000 -0.000 -0.000 -0.000 -0.000 -0.000 -0.000 -0.000 -0.000 -0.000 -0.000 -0.000 -0.000 -0.000 -0.000


Dumping 'NbTe2.fillings' ... done
Dumping 'NbTe2.wfns' ... done
Dumping 'NbTe2.fluidState' ... done
Dumping 'NbTe2.ionpos' ... done
Dumping 'NbTe2.eigenvals' ... done
End date and time: Sun Dec 27 17:40:57 2020  (Duration: 0-2:56:58.10)
Done!
