
*************** JDFTx 1.5.0  ***************

Start date and time: Sun Jul  5 08:15:42 2020
Executable jdftx_gpu with command-line: -i Neutral.in -o Neutral.out
Running on hosts (process indices):  amax (0)
Divided in process groups (process indices):  0 (0)
gpuInit: Found compatible cuda device 0 'Tesla K80'
gpuInit: Selected device 0
Resource initialization completed at t[s]:     20.56
Run totals: 1 processes, 24 threads, 1 GPUs


Input parsed successfully to the following command list (including defaults):

basis kpoint-dependent
cache-projectors no
coords-type Lattice
core-overlap-check none
coulomb-interaction Slab 001
coulomb-truncation-embed 0 0 0.5
davidson-band-ratio 1.1
dump End State
dump-name NbTe2.$VAR
elec-cutoff 20 100
elec-eigen-algo Davidson
elec-ex-corr gga-PBE
elec-smearing Gauss 0.0073499
electronic-minimize  \
	dirUpdateScheme      FletcherReeves \
	linminMethod         DirUpdateRecommended \
	nIterations          100 \
	history              15 \
	knormThreshold       0 \
	energyDiffThreshold  1e-08 \
	nEnergyDiff          2 \
	alphaTstart          1 \
	alphaTmin            1e-10 \
	updateTestStepSize   yes \
	alphaTreduceFactor   0.1 \
	alphaTincreaseFactor 3 \
	nAlphaAdjustMax      3 \
	wolfeEnergy          0.0001 \
	wolfeGradient        0.9 \
	fdTest               no
electronic-scf  \
	nIterations	500 \
	energyDiffThreshold	1e-08 \
	residualThreshold	1e-07 \
	mixFraction	0.5 \
	qMetric	0.8 \
	history	10 \
	nEigSteps	2 \
	eigDiffThreshold	1e-08 \
	mixedVariable	Density \
	qKerker	0.8 \
	qKappa	-1 \
	verbose	no \
	mixFractionMag	1.5
exchange-regularization WignerSeitzTruncated
fluid LinearPCM 298.000000 1.013250
fluid-anion F- 1 MeanFieldLJ \
	epsBulk 1 \
	pMol 0 \
	epsInf 1 \
	Pvap 0 \
	sigmaBulk 0 \
	Rvdw 2.24877 \
	Res 0 \
	tauNuc 343133
fluid-cation Na+ 1 MeanFieldLJ \
	epsBulk 1 \
	pMol 0 \
	epsInf 1 \
	Pvap 0 \
	sigmaBulk 0 \
	Rvdw 2.19208 \
	Res 0 \
	tauNuc 343133
fluid-ex-corr lda-TF lda-PZ
fluid-gummel-loop 10 1.000000e-05
fluid-minimize  \
	dirUpdateScheme      PolakRibiere \
	linminMethod         DirUpdateRecommended \
	nIterations          400 \
	history              15 \
	knormThreshold       1e-11 \
	energyDiffThreshold  0 \
	nEnergyDiff          2 \
	alphaTstart          1 \
	alphaTmin            1e-10 \
	updateTestStepSize   yes \
	alphaTreduceFactor   0.1 \
	alphaTincreaseFactor 3 \
	nAlphaAdjustMax      6 \
	wolfeEnergy          0.0001 \
	wolfeGradient        0.9 \
	fdTest               no
fluid-solvent H2O 55.338 ScalarEOS \
	epsBulk 78.4 \
	pMol 0.92466 \
	epsInf 1.77 \
	Pvap 1.06736e-10 \
	sigmaBulk 4.62e-05 \
	Rvdw 2.61727 \
	Res 1.42 \
	tauNuc 343133 \
	poleEl 15 7 1
forces-output-coords Positions
initial-state NbTe2.$VAR
ion Bi   0.999999999546368   0.939952929148110   0.599468214843503 0
ion Bi   0.499999999546368   0.939952929148110   0.599468214843503 0
ion Bi   0.999999999844647   0.060039662253448   0.400537654713476 0
ion Bi   0.499999999844647   0.060039662253448   0.400537654713476 0
ion Bi   0.250000000197531   0.793651967120980   0.357877739782087 0
ion Bi   0.750000000197531   0.793651967120980   0.357877739782087 0
ion Bi   0.250000000105132   0.337712064018673   0.441646416483154 0
ion Bi   0.750000000105132   0.337712064018673   0.441646416483154 0
ion Bi   0.000000000030020   0.164497901882672   0.570189863254962 0
ion Bi   0.500000000030020   0.164497901882672   0.570189863254962 0
ion Bi   0.999999999818563   0.614530870643316   0.487923704599849 0
ion Bi   0.499999999818563   0.614530870643316   0.487923704599849 0
ion Bi   0.000000000224617   0.835510657716601   0.429810547174943 0
ion Bi   0.500000000224617   0.835510657716601   0.429810547174943 0
ion Bi   0.000000000085791   0.521615209196053   0.311339701431008 0
ion Bi   0.500000000085791   0.521615209196053   0.311339701431008 0
ion Bi   0.249999999825789   0.112234484621139   0.469842323763827 0
ion Bi   0.749999999825789   0.112234484621139   0.469842323763827 0
ion Bi   0.249999999866056   0.662294193014789   0.558349892638246 0
ion Bi   0.749999999866056   0.662294193014789   0.558349892638246 0
ion Bi   0.000000000101402   0.385476998628837   0.512069346265678 0
ion Bi   0.500000000101402   0.385476998628837   0.512069346265678 0
ion Bi   0.249999999542204   0.887770727789872   0.530152890959039 0
ion Bi   0.749999999542204   0.887770727789872   0.530152890959039 0
ion Bi   0.250000000025537   0.206349434629771   0.642126227851495 0
ion Bi   0.750000000025537   0.206349434629771   0.642126227851495 0
ion Bi   0.250000000156490   0.430075001182896   0.616956692632196 0
ion Bi   0.750000000156490   0.430075001182896   0.616956692632196 0
ion Bi   0.250000000095774   0.569926136772988   0.383043645545418 0
ion Bi   0.750000000095774   0.569926136772988   0.383043645545418 0
ion Bi   0.000000000147644   0.478377046960443   0.688665033035926 0
ion Bi   0.500000000147644   0.478377046960443   0.688665033035926 0
ion I   0.999999999915985   0.267410926663241   0.734248322345265 0
ion I   0.499999999915985   0.267410926663241   0.734248322345265 0
ion I   0.999999999827558   0.732573026622131   0.265750068782304 0
ion I   0.499999999827558   0.732573026622131   0.265750068782304 0
ion I   0.000000000453042   0.294786311208194   0.342139648350422 0
ion I   0.500000000453042   0.294786311208194   0.342139648350422 0
ion I   0.000000000189836   0.705214449925824   0.657862065547195 0
ion I   0.500000000189836   0.705214449925824   0.657862065547195 0
ion-species GBRV/$ID_pbe.uspp
ion-width Ecut
ionic-minimize  \
	dirUpdateScheme      L-BFGS \
	linminMethod         DirUpdateRecommended \
	nIterations          0 \
	history              15 \
	knormThreshold       0.0001 \
	energyDiffThreshold  1e-06 \
	nEnergyDiff          2 \
	alphaTstart          1 \
	alphaTmin            1e-10 \
	updateTestStepSize   yes \
	alphaTreduceFactor   0.1 \
	alphaTincreaseFactor 3 \
	nAlphaAdjustMax      3 \
	wolfeEnergy          0.0001 \
	wolfeGradient        0.9 \
	fdTest               no
kpoint   0.000000000000   0.000000000000   0.000000000000  1.00000000000000
kpoint-folding 4 3 1 
latt-move-scale 1 1 1
latt-scale 1 1 1 
lattice Triclinic 16.7347 25.0422 53.813 90 90 90
lattice-minimize  \
	dirUpdateScheme      L-BFGS \
	linminMethod         DirUpdateRecommended \
	nIterations          0 \
	history              15 \
	knormThreshold       0 \
	energyDiffThreshold  1e-06 \
	nEnergyDiff          2 \
	alphaTstart          1 \
	alphaTmin            1e-10 \
	updateTestStepSize   yes \
	alphaTreduceFactor   0.1 \
	alphaTincreaseFactor 3 \
	nAlphaAdjustMax      3 \
	wolfeEnergy          0.0001 \
	wolfeGradient        0.9 \
	fdTest               no
lcao-params -1 1e-06 0.0073499
pcm-variant CANDLE
spintype no-spin
subspace-rotation-factor 1 yes
symmetries automatic
symmetry-threshold 0.0001



---------- Setting up symmetries ----------

Found 8 point-group symmetries of the bravais lattice
Found 4 space-group symmetries with basis
Applied RMS atom displacement 3.69296e-09 bohrs to make symmetries exact.

---------- Initializing the Grid ----------
R = 
[    16.7347          0          0  ]
[          0    25.0422          0  ]
[          0          0     53.813  ]
unit cell volume = 22551.6
G =
[   0.375458          0          0  ]
[          0   0.250904          0  ]
[          0          0    0.11676  ]
Minimum fftbox size, Smin = [  76  116  244  ]
Chosen fftbox size, S = [  80  120  250  ]

---------- Initializing tighter grid for wavefunction operations ----------
R = 
[    16.7347          0          0  ]
[          0    25.0422          0  ]
[          0          0     53.813  ]
unit cell volume = 22551.6
G =
[   0.375458          0          0  ]
[          0   0.250904          0  ]
[          0          0    0.11676  ]
Minimum fftbox size, Smin = [  68  104  220  ]
Chosen fftbox size, S = [  70  108  224  ]

---------- Exchange Correlation functional ----------
Initalized PBE GGA exchange.
Initalized PBE GGA correlation.

---------- Setting up pseudopotentials ----------
Width of ionic core gaussian charges (only for fluid interactions / plotting) set to 0.397384

Reading pseudopotential file '/home/guoxy/vasp/jdftx-1.5.0/build/pseudopotentials/GBRV/bi_pbe.uspp':
  Title: Bi.  Created by USPP 7.3.6 on 14-9-2013
  Reference state energy: -92.204004.  15 valence electrons in orbitals:
    |520>  occupation: 10  eigenvalue: -1.293263
    |600>  occupation: 2  eigenvalue: -0.812524
    |610>  occupation: 2  eigenvalue: -0.420386
  lMax: 2  lLocal: 3  QijEcut: 5
  6 projectors sampled on a log grid with 747 points:
    l: 0  eig: -0.812524  rCut: 2.5
    l: 0  eig: 0.500000  rCut: 2.5
    l: 1  eig: -0.420386  rCut: 2.5
    l: 1  eig: 1.000000  rCut: 2.5
    l: 2  eig: -1.293263  rCut: 2.3
    l: 2  eig: -0.500000  rCut: 2.3
  Partial core density with radius 1
  Transforming core density to a uniform radial grid of dG=0.02 with 1295 points.
  Transforming local potential to a uniform radial grid of dG=0.02 with 1295 points.
  Transforming nonlocal projectors to a uniform radial grid of dG=0.02 with 432 points.
  Transforming density augmentations to a uniform radial grid of dG=0.02 with 1295 points.
  Transforming atomic orbitals to a uniform radial grid of dG=0.02 with 432 points.
  Core radius for overlap checks: 2.50 bohrs.

Reading pseudopotential file '/home/guoxy/vasp/jdftx-1.5.0/build/pseudopotentials/GBRV/i_pbe.uspp':
  Title: I.  Created by USPP 7.3.6 on 14-9-2013
  Reference state energy: -32.770235.  7 valence electrons in orbitals:
    |500>  occupation: 2  eigenvalue: -0.639712
    |510>  occupation: 5  eigenvalue: -0.260406
  lMax: 2  lLocal: 3  QijEcut: 5
  6 projectors sampled on a log grid with 725 points:
    l: 0  eig: -0.639710  rCut: 1.9
    l: 0  eig: 0.000000  rCut: 1.9
    l: 1  eig: -0.260404  rCut: 2
    l: 1  eig: 0.000000  rCut: 2
    l: 2  eig: -0.500000  rCut: 2.45
    l: 2  eig: 0.500000  rCut: 2.45
  Partial core density with radius 1.3
  Transforming core density to a uniform radial grid of dG=0.02 with 1295 points.
  Transforming local potential to a uniform radial grid of dG=0.02 with 1295 points.
  Transforming nonlocal projectors to a uniform radial grid of dG=0.02 with 432 points.
  Transforming density augmentations to a uniform radial grid of dG=0.02 with 1295 points.
  Transforming atomic orbitals to a uniform radial grid of dG=0.02 with 432 points.
  Core radius for overlap checks: 2.45 bohrs.

Initialized 2 species with 40 total atoms.

Folded 1 k-points by 4x3x1 to 12 k-points.

---------- Setting up k-points, bands, fillings ----------
Adding inversion symmetry to k-mesh for non-inversion-symmetric unit cell.
Reduced to 6 k-points under symmetry. 
Computing the number of bands and number of electrons
Calculating initial fillings.
nElectrons: 536.000000   nBands: 320   nStates: 6

----- Setting up reduced wavefunction bases (one per k-point) -----
average nbasis = 96340.417 , ideal nbasis = 96342.186

---------- Setting up coulomb interaction ----------
Fluid mode embedding: using embedded box, but periodic Coulomb kernel.
(Fluid response is responsible for (approximate) separation between periodic images.)
Setting up double-sized grid for truncated Coulomb potentials:
R = 
[    16.7347          0          0  ]
[          0    25.0422          0  ]
[          0          0    107.626  ]
unit cell volume = 45103.2
G =
[   0.375458          0          0  ]
[          0   0.250904          0  ]
[          0          0  0.0583798  ]
Chosen fftbox size, S = [  80  120  500  ]
Integer grid location selected as the embedding center:
   Grid: [  0  0  125  ]
   Lattice: [  0  0  0.5  ]
   Cartesian: [  0  0  26.9065  ]
Constructing Wigner-Seitz cell: 6 faces (6 quadrilaterals, 0 hexagons)
Range-separation parameter for embedded mesh potentials due to point charges: 0.585307 bohrs.

Initializing van der Waals corrections
	NOTE: vdW corrections apply only for interactions with fluid.
	Bi:  C6:  893.28 Eh-a0^6  R0: 3.555 a0 (WARNING: beyond Grimme's data set)
	 I:  C6:  546.38 Eh-a0^6  R0: 3.575 a0

---------- Setting up ewald sum ----------
Optimum gaussian width for ewald sums = 7.678963 bohr.
Real space sum over 585 unit cells with max indices [  6  4  2  ]
Reciprocal space sum over 6721 terms with max indices [  5  6  23  ]

---------- Allocating electronic variables ----------
Initializing wave functions:  linear combination of atomic orbitals
Bi pseudo-atom occupations:   s ( 2 )  p ( 3 )  d ( 10 )
I pseudo-atom occupations:   s ( 2 )  p ( 5 )
	FillingsUpdate:  mu: -0.156245298  nElectrons: 536.000000
LCAOMinimize: Iter:   0  F: -2391.7460797775124774  |grad|_K:  2.418e-03  alpha:  1.000e+00
	FillingsUpdate:  mu: -0.142308291  nElectrons: 536.000000
LCAOMinimize: Iter:   1  F: -2391.8318245001673858  |grad|_K:  2.057e-03  alpha:  2.551e-02  linmin: -2.395e-01  cgtest:  9.803e-01  t[s]:    131.13
LCAOMinimize: Encountered beta<0, resetting CG.
LCAOMinimize: 	Predicted alpha/alphaT>3.000000, increasing alphaT to 7.653323e-02.
	FillingsUpdate:  mu: -0.059856227  nElectrons: 536.000000
LCAOMinimize: Iter:   2  F: -2392.0775039886138984  |grad|_K:  1.461e-03  alpha:  2.048e-01  linmin:  5.233e-02  cgtest: -4.025e-01  t[s]:    185.21
	FillingsUpdate:  mu: -0.042721898  nElectrons: 536.000000
LCAOMinimize: Iter:   3  F: -2392.1219950471599986  |grad|_K:  1.491e-03  alpha:  5.866e-02  linmin: -5.748e-02  cgtest:  9.608e-01  t[s]:    226.05
	FillingsUpdate:  mu: -0.097165112  nElectrons: 536.000000
LCAOMinimize: Iter:   4  F: -2392.2207453233063461  |grad|_K:  5.438e-04  alpha:  1.439e-01  linmin:  2.836e-02  cgtest: -1.973e-01  t[s]:    268.11
	FillingsUpdate:  mu: -0.069263858  nElectrons: 536.000000
LCAOMinimize: Iter:   5  F: -2392.2411657978004769  |grad|_K:  2.985e-04  alpha:  3.487e-01  linmin:  2.112e-01  cgtest: -6.620e-01  t[s]:    309.49
LCAOMinimize: 	Bad step direction: g.d > 0.
LCAOMinimize: 	Undoing step.
LCAOMinimize: 	Step failed: resetting search direction.
	FillingsUpdate:  mu: -0.069263858  nElectrons: 536.000000
LCAOMinimize: Iter:   6  F: -2392.2411657978004769  |grad|_K:  2.985e-04  alpha:  0.000e+00
	FillingsUpdate:  mu: -0.084175154  nElectrons: 536.000000
LCAOMinimize: Iter:   7  F: -2392.2456194989599680  |grad|_K:  1.642e-04  alpha:  1.823e-01  linmin:  2.520e-02  cgtest: -1.106e-01  t[s]:    380.76
	FillingsUpdate:  mu: -0.080880728  nElectrons: 536.000000
LCAOMinimize: Iter:   8  F: -2392.2468518496561956  |grad|_K:  4.379e-05  alpha:  1.563e-01  linmin:  1.639e-04  cgtest:  1.712e-01  t[s]:    422.47
	FillingsUpdate:  mu: -0.080551147  nElectrons: 536.000000
LCAOMinimize: Iter:   9  F: -2392.2469248389020322  |grad|_K:  3.673e-05  alpha:  1.231e-01  linmin:  3.686e-05  cgtest:  7.950e-04  t[s]:    464.41
	FillingsUpdate:  mu: -0.080492195  nElectrons: 536.000000
LCAOMinimize: Iter:  10  F: -2392.2469620158412908  |grad|_K:  1.330e-05  alpha:  8.914e-02  linmin: -1.703e-05  cgtest: -3.662e-03  t[s]:    505.34
LCAOMinimize: 	Predicted alpha/alphaT>3.000000, increasing alphaT to 2.674320e-01.
	FillingsUpdate:  mu: -0.080839978  nElectrons: 536.000000
LCAOMinimize: Iter:  11  F: -2392.2469770282741592  |grad|_K:  9.284e-06  alpha:  2.745e-01  linmin: -7.588e-05  cgtest: -1.435e-03  t[s]:    559.09
	FillingsUpdate:  mu: -0.080469181  nElectrons: 536.000000
LCAOMinimize: Iter:  12  F: -2392.2469825951502571  |grad|_K:  6.163e-06  alpha:  2.088e-01  linmin:  3.101e-05  cgtest: -2.137e-03  t[s]:    600.83
	FillingsUpdate:  mu: -0.080550823  nElectrons: 536.000000
LCAOMinimize: Iter:  13  F: -2392.2469847733309507  |grad|_K:  5.664e-06  alpha:  1.856e-01  linmin: -1.719e-06  cgtest:  9.835e-04  t[s]:    642.51
	FillingsUpdate:  mu: -0.080610823  nElectrons: 536.000000
LCAOMinimize: Iter:  14  F: -2392.2469854921200749  |grad|_K:  1.804e-06  alpha:  7.246e-02  linmin: -9.941e-06  cgtest: -1.102e-03  t[s]:    683.56
LCAOMinimize: 	Predicted alpha/alphaT>3.000000, increasing alphaT to 2.173940e-01.
	FillingsUpdate:  mu: -0.080598289  nElectrons: 536.000000
LCAOMinimize: Iter:  15  F: -2392.2469857111782403  |grad|_K:  8.239e-07  alpha:  2.178e-01  linmin: -1.812e-05  cgtest:  1.815e-04  t[s]:    736.69
LCAOMinimize: Converged (|Delta F|<1.000000e-06 for 2 iters).
----- createFluidSolver() ----- (Fluid-side solver setup)
   Initializing fluid molecule 'H2O'
     Initializing site 'O'
       Electron density: proportional to exp(-r/0.36935)*erfc((r-0.51523)/0.36823) with norm 6.826
       Charge density: gaussian nuclear width 0.478731 with net site charge 0.826
       Polarizability: cuspless exponential with width 0.32 and norm 3.73
       Hard sphere radius: 2.57003 bohrs
       Positions in reference frame:
         [ +0.000000 +0.000000 +0.000000 ]
     Initializing site 'H'
       Electron density: proportional to exp(-r/0.34641)*erfc((r-0)/0.390882) with norm 0.587
       Charge density: gaussian nuclear width 0.377945 with net site charge -0.413
       Polarizability: cuspless exponential with width 0.39 and norm 3.3
       Positions in reference frame:
         [ +0.000000 -1.441945 +1.122523 ]
         [ +0.000000 +1.441945 +1.122523 ]
     Net charge: 0   dipole magnitude: 0.927204
     Initializing spherical shell mfKernel with radius 2.61727 Bohr
     deltaS corrections:
       site 'O': -7.54299
       site 'H': -6.83917
   Initializing fluid molecule 'Na+'
     Initializing site 'Na'
       Electron density: proportional to exp(-r/0.19682)*erfc((r-0.71491)/0.41314) with norm 8.1383
       Charge density: gaussian nuclear width 0.365347 with net site charge -1
       Hard sphere radius: 1.86327 bohrs
       Positions in reference frame:
         [ +0.000000 +0.000000 +0.000000 ]
     Net charge: -1   dipole magnitude: 0
     Initializing gaussian mfKernel with width: 1.55004 Bohr
     deltaS corrections:
       site 'Na': -22.3555
   Initializing fluid molecule 'F-'
     Initializing site 'F'
       Electron density: proportional to exp(-r/0.38886)*erfc((r-0)/0.438782) with norm 8
       Charge density: gaussian nuclear width 0.374796 with net site charge 1
       Hard sphere radius: 2.39995 bohrs
       Positions in reference frame:
         [ +0.000000 +0.000000 +0.000000 ]
     Net charge: 1   dipole magnitude: 0
     Initializing gaussian mfKernel with width: 1.59012 Bohr
     deltaS corrections:
       site 'F': -9.04335

Correction to mu due to finite nuclear width = -0.0117912
   Cavity determined by nc: 0.00142 and sigma: 0.707107
   Nonlocal vdW cavity from gaussian model electron density with norm = 8 and sigma = 0.993594 bohr
   Charge asymmetry in cavity with sensitivity pCavity = 36.5 e-bohr/Eh
   Electrostatic cavity expanded by eta = 1.46 bohrs
   Weighted density cavitation model constrained by Nbulk: 0.0049383 bohr^-3, Pvap: 3.14029 kPa, Rvdw: 2.61727 bohr and sigmaBulk: 4.62e-05 Eh/bohr^2 at T: 298 K.
   Weighted density dispersion model using vdW pair potentials with single solvent site with sqrtC6eff: 0.77 SI.


---- Citations for features of the code used in this run ----

   Software package:
      R. Sundararaman, K. Letchworth-Weaver, K.A. Schwarz, D. Gunceler, Y. Ozhabes and T.A. Arias, 'JDFTx: software for joint density-functional theory', SoftwareX 6, 278 (2017)

   gga-PBE exchange-correlation functional:
      J.P. Perdew, K. Burke and M. Ernzerhof, Phys. Rev. Lett. 77, 3865 (1996)

   Pseudopotentials:
      KF Garrity, JW Bennett, KM Rabe and D Vanderbilt, Comput. Mater. Sci. 81, 446 (2014)

   Truncated Coulomb potentials:
      R. Sundararaman and T.A. Arias, Phys. Rev. B 87, 165122 (2013)

   Van der Waals correction pair-potentials:
      S. Grimme, J. Comput. Chem. 27, 1787 (2006)

   Charge-asymmetric nonlocally-determined local-electric (CANDLE) solvation model:
      R. Sundararaman and W.A. Goddard III, J. Chem. Phys. 142, 064107 (2015)

This list may not be complete. Please suggest additional citations or
report any other bugs at https://github.com/shankar1729/jdftx/issues

Initialization completed successfully at t[s]:    746.27

Fluid solver invoked on fresh (partially random / LCAO) wavefunctions
Running a vacuum solve first:

-------- Initial electronic minimization -----------
Will mix electronic density at each iteration.
	FillingsUpdate:  mu: -0.080598289  nElectrons: 536.000000
	FillingsUpdate:  mu: -0.087733602  nElectrons: 536.000000
SCF: Cycle:  0   F: -2392.762104450150673   dF: -5.151e-01   |Residual|: 3.149e-01   |deigs|: 9.754e-03  t[s]:    884.64
	FillingsUpdate:  mu: -0.089937618  nElectrons: 536.000000
SCF: Cycle:  1   F: -2392.962922850039376   dF: -2.008e-01   |Residual|: 1.411e-01   |deigs|: 1.216e-02  t[s]:    995.63
	FillingsUpdate:  mu: -0.090952753  nElectrons: 536.000000
SCF: Cycle:  2   F: -2393.015451701456641   dF: -5.253e-02   |Residual|: 4.907e-02   |deigs|: 8.303e-03  t[s]:   1107.04
	FillingsUpdate:  mu: -0.089972103  nElectrons: 536.000000
SCF: Cycle:  3   F: -2393.017649255427386   dF: -2.198e-03   |Residual|: 1.342e-02   |deigs|: 1.043e-03  t[s]:   1218.86
	FillingsUpdate:  mu: -0.089073408  nElectrons: 536.000000
SCF: Cycle:  4   F: -2393.019077529180322   dF: -1.428e-03   |Residual|: 6.523e-03   |deigs|: 6.385e-04  t[s]:   1330.71
	FillingsUpdate:  mu: -0.087676437  nElectrons: 536.000000
SCF: Cycle:  5   F: -2393.019467728637210   dF: -3.902e-04   |Residual|: 2.872e-03   |deigs|: 1.448e-03  t[s]:   1440.70
	FillingsUpdate:  mu: -0.086755050  nElectrons: 536.000000
SCF: Cycle:  6   F: -2393.019654926677049   dF: -1.872e-04   |Residual|: 2.231e-03   |deigs|: 9.592e-04  t[s]:   1553.20
	FillingsUpdate:  mu: -0.085294752  nElectrons: 536.000000
SCF: Cycle:  7   F: -2393.019779230653057   dF: -1.243e-04   |Residual|: 1.535e-03   |deigs|: 1.476e-03  t[s]:   1664.86
	FillingsUpdate:  mu: -0.084217472  nElectrons: 536.000000
SCF: Cycle:  8   F: -2393.019807601749108   dF: -2.837e-05   |Residual|: 9.342e-04   |deigs|: 1.087e-03  t[s]:   1788.10
	FillingsUpdate:  mu: -0.083418826  nElectrons: 536.000000
SCF: Cycle:  9   F: -2393.019818778985609   dF: -1.118e-05   |Residual|: 7.411e-04   |deigs|: 8.029e-04  t[s]:   1941.67
	FillingsUpdate:  mu: -0.082446159  nElectrons: 536.000000
SCF: Cycle: 10   F: -2393.019821537091957   dF: -2.758e-06   |Residual|: 6.177e-04   |deigs|: 9.952e-04  t[s]:   2053.64
	FillingsUpdate:  mu: -0.081959819  nElectrons: 536.000000
SCF: Cycle: 11   F: -2393.019825250974918   dF: -3.714e-06   |Residual|: 4.157e-04   |deigs|: 4.887e-04  t[s]:   2200.51
	FillingsUpdate:  mu: -0.081355031  nElectrons: 536.000000
SCF: Cycle: 12   F: -2393.019828683413380   dF: -3.432e-06   |Residual|: 3.098e-04   |deigs|: 6.075e-04  t[s]:   2313.83
	FillingsUpdate:  mu: -0.080887421  nElectrons: 536.000000
SCF: Cycle: 13   F: -2393.019830381320844   dF: -1.698e-06   |Residual|: 2.185e-04   |deigs|: 4.658e-04  t[s]:   2427.71
	FillingsUpdate:  mu: -0.080681746  nElectrons: 536.000000
SCF: Cycle: 14   F: -2393.019830792164157   dF: -4.108e-07   |Residual|: 1.218e-04   |deigs|: 2.051e-04  t[s]:   2541.23
	FillingsUpdate:  mu: -0.080577269  nElectrons: 536.000000
SCF: Cycle: 15   F: -2393.019830946511775   dF: -1.543e-07   |Residual|: 7.347e-05   |deigs|: 1.056e-04  t[s]:   2654.64
	FillingsUpdate:  mu: -0.080531772  nElectrons: 536.000000
SCF: Cycle: 16   F: -2393.019831026643715   dF: -8.013e-08   |Residual|: 4.196e-05   |deigs|: 4.641e-05  t[s]:   2770.22
	FillingsUpdate:  mu: -0.080507137  nElectrons: 536.000000
SCF: Cycle: 17   F: -2393.019831074167541   dF: -4.752e-08   |Residual|: 2.645e-05   |deigs|: 2.474e-05  t[s]:   2885.50
	FillingsUpdate:  mu: -0.080500445  nElectrons: 536.000000
SCF: Cycle: 18   F: -2393.019831102798889   dF: -2.863e-08   |Residual|: 1.687e-05   |deigs|: 6.926e-06  t[s]:   2999.21
	FillingsUpdate:  mu: -0.080501656  nElectrons: 536.000000
SCF: Cycle: 19   F: -2393.019831117548620   dF: -1.475e-08   |Residual|: 1.139e-05   |deigs|: 4.342e-06  t[s]:   3112.63
	FillingsUpdate:  mu: -0.080499888  nElectrons: 536.000000
SCF: Cycle: 20   F: -2393.019831124985103   dF: -7.436e-09   |Residual|: 7.467e-06   |deigs|: 2.681e-06  t[s]:   3220.24
	FillingsUpdate:  mu: -0.080496897  nElectrons: 536.000000
SCF: Cycle: 21   F: -2393.019831129401155   dF: -4.416e-09   |Residual|: 3.645e-06   |deigs|: 3.444e-06  t[s]:   3335.81
SCF: Converged (|Delta E|<1.000000e-08 for 2 iters).

Vacuum energy after initial minimize, F = -2393.019831129401155

	FillingsUpdate:  mu: -0.080496897  nElectrons: 536.000000
	Linear fluid (dielectric constant: 78.4, screening length: 5.74355 Bohr) occupying 0.713861 of unit cell:	Completed after 25 iterations at t[s]:   3350.59

-------- Electronic minimization -----------
Will mix electronic density at each iteration.
	FillingsUpdate:  mu: -0.080496897  nElectrons: 536.000000
	Linear fluid (dielectric constant: 78.4, screening length: 5.74355 Bohr) occupying 0.713861 of unit cell:	Completed after 0 iterations at t[s]:   3363.33
	FillingsUpdate:  mu: -0.170650179  nElectrons: 536.000000
	Linear fluid (dielectric constant: 78.4, screening length: 5.74355 Bohr) occupying 0.714418 of unit cell:	Completed after 21 iterations at t[s]:   3516.07
SCF: Cycle:  0   F: -2393.017290591299570   dF: +9.640e-04   |Residual|: 2.312e-02   |deigs|: 1.403e-04  t[s]:   3517.94
	Linear fluid (dielectric constant: 78.4, screening length: 5.74355 Bohr) occupying 0.714174 of unit cell:	Completed after 21 iterations at t[s]:   3520.97
	FillingsUpdate:  mu: -0.170830547  nElectrons: 536.000000
	Linear fluid (dielectric constant: 78.4, screening length: 5.74355 Bohr) occupying 0.714373 of unit cell:	Completed after 18 iterations at t[s]:   3636.88
SCF: Cycle:  1   F: -2393.020368136518300   dF: -3.078e-03   |Residual|: 1.011e-02   |deigs|: 6.403e-04  t[s]:   3638.84
	Linear fluid (dielectric constant: 78.4, screening length: 5.74355 Bohr) occupying 0.714508 of unit cell:	Completed after 19 iterations at t[s]:   3641.79
	FillingsUpdate:  mu: -0.170936441  nElectrons: 536.000000
	Linear fluid (dielectric constant: 78.4, screening length: 5.74355 Bohr) occupying 0.714387 of unit cell:	Completed after 16 iterations at t[s]:   3756.61
SCF: Cycle:  2   F: -2393.020992810686948   dF: -6.247e-04   |Residual|: 5.488e-03   |deigs|: 2.827e-04  t[s]:   3758.39
	Linear fluid (dielectric constant: 78.4, screening length: 5.74355 Bohr) occupying 0.714762 of unit cell:	Completed after 16 iterations at t[s]:   3760.85
	FillingsUpdate:  mu: -0.170908267  nElectrons: 536.000000
	Linear fluid (dielectric constant: 78.4, screening length: 5.74355 Bohr) occupying 0.714433 of unit cell:	Completed after 14 iterations at t[s]:   3876.01
SCF: Cycle:  3   F: -2393.021096402153034   dF: -1.036e-04   |Residual|: 2.924e-03   |deigs|: 8.938e-05  t[s]:   3877.92
	Linear fluid (dielectric constant: 78.4, screening length: 5.74355 Bohr) occupying 0.714900 of unit cell:	Completed after 14 iterations at t[s]:   3880.22
	FillingsUpdate:  mu: -0.170775448  nElectrons: 536.000000
	Linear fluid (dielectric constant: 78.4, screening length: 5.74355 Bohr) occupying 0.714451 of unit cell:	Completed after 13 iterations at t[s]:   3994.16
SCF: Cycle:  4   F: -2393.021126222936800   dF: -2.982e-05   |Residual|: 1.684e-03   |deigs|: 1.386e-04  t[s]:   3996.21
	Linear fluid (dielectric constant: 78.4, screening length: 5.74355 Bohr) occupying 0.714866 of unit cell:	Completed after 14 iterations at t[s]:   3998.61
	FillingsUpdate:  mu: -0.170692813  nElectrons: 536.000000
	Linear fluid (dielectric constant: 78.4, screening length: 5.74355 Bohr) occupying 0.714439 of unit cell:	Completed after 11 iterations at t[s]:   4114.60
SCF: Cycle:  5   F: -2393.021150462279820   dF: -2.424e-05   |Residual|: 1.120e-03   |deigs|: 8.334e-05  t[s]:   4116.49
	Linear fluid (dielectric constant: 78.4, screening length: 5.74355 Bohr) occupying 0.714786 of unit cell:	Completed after 11 iterations at t[s]:   4118.39
	FillingsUpdate:  mu: -0.170640596  nElectrons: 536.000000
	Linear fluid (dielectric constant: 78.4, screening length: 5.74355 Bohr) occupying 0.714423 of unit cell:	Completed after 11 iterations at t[s]:   4234.06
SCF: Cycle:  6   F: -2393.021157454149943   dF: -6.992e-06   |Residual|: 8.347e-04   |deigs|: 5.364e-05  t[s]:   4235.99
	Linear fluid (dielectric constant: 78.4, screening length: 5.74355 Bohr) occupying 0.714618 of unit cell:	Completed after 11 iterations at t[s]:   4237.92
	FillingsUpdate:  mu: -0.170730145  nElectrons: 536.000000
	Linear fluid (dielectric constant: 78.4, screening length: 5.74355 Bohr) occupying 0.714411 of unit cell:	Completed after 10 iterations at t[s]:   4352.12
SCF: Cycle:  7   F: -2393.021165794629269   dF: -8.340e-06   |Residual|: 6.103e-04   |deigs|: 9.065e-05  t[s]:   4353.89
	Linear fluid (dielectric constant: 78.4, screening length: 5.74355 Bohr) occupying 0.714443 of unit cell:	Completed after 10 iterations at t[s]:   4355.65
	FillingsUpdate:  mu: -0.170866729  nElectrons: 536.000000
	Linear fluid (dielectric constant: 78.4, screening length: 5.74355 Bohr) occupying 0.714406 of unit cell:	Completed after 10 iterations at t[s]:   4471.82
SCF: Cycle:  8   F: -2393.021169100174120   dF: -3.306e-06   |Residual|: 4.805e-04   |deigs|: 1.394e-04  t[s]:   4473.92
	Linear fluid (dielectric constant: 78.4, screening length: 5.74355 Bohr) occupying 0.714329 of unit cell:	Completed after 10 iterations at t[s]:   4475.76
	FillingsUpdate:  mu: -0.171031596  nElectrons: 536.000000
	Linear fluid (dielectric constant: 78.4, screening length: 5.74355 Bohr) occupying 0.714411 of unit cell:	Completed after 4 iterations at t[s]:   4590.80
SCF: Cycle:  9   F: -2393.021173325444124   dF: -4.225e-06   |Residual|: 3.209e-04   |deigs|: 1.694e-04  t[s]:   4592.64
	Linear fluid (dielectric constant: 78.4, screening length: 5.74355 Bohr) occupying 0.714304 of unit cell:	Completed after 3 iterations at t[s]:   4593.75
	FillingsUpdate:  mu: -0.171103941  nElectrons: 536.000000
	Linear fluid (dielectric constant: 78.4, screening length: 5.74355 Bohr) occupying 0.714414 of unit cell:	Completed after 4 iterations at t[s]:   4709.21
SCF: Cycle: 10   F: -2393.021173193645154   dF: +1.318e-07   |Residual|: 2.977e-04   |deigs|: 7.802e-05  t[s]:   4711.17
	Linear fluid (dielectric constant: 78.4, screening length: 5.74355 Bohr) occupying 0.714302 of unit cell:	Completed after 3 iterations at t[s]:   4712.29
	FillingsUpdate:  mu: -0.171066326  nElectrons: 536.000000
	Linear fluid (dielectric constant: 78.4, screening length: 5.74355 Bohr) occupying 0.714412 of unit cell:	Completed after 5 iterations at t[s]:   4825.73
SCF: Cycle: 11   F: -2393.021172124134864   dF: +1.070e-06   |Residual|: 2.687e-04   |deigs|: 4.871e-05  t[s]:   4827.50
	Linear fluid (dielectric constant: 78.4, screening length: 5.74355 Bohr) occupying 0.714319 of unit cell:	Completed after 3 iterations at t[s]:   4828.60
	FillingsUpdate:  mu: -0.171159138  nElectrons: 536.000000
	Linear fluid (dielectric constant: 78.4, screening length: 5.74355 Bohr) occupying 0.714421 of unit cell:	Completed after 6 iterations at t[s]:   4943.07
SCF: Cycle: 12   F: -2393.021171917178890   dF: +2.070e-07   |Residual|: 2.786e-04   |deigs|: 1.023e-04  t[s]:   4945.26
	Linear fluid (dielectric constant: 78.4, screening length: 5.74355 Bohr) occupying 0.714335 of unit cell:	Completed after 3 iterations at t[s]:   4946.41
	FillingsUpdate:  mu: -0.170949424  nElectrons: 536.000000
	Linear fluid (dielectric constant: 78.4, screening length: 5.74355 Bohr) occupying 0.714408 of unit cell:	Completed after 11 iterations at t[s]:   5062.13
SCF: Cycle: 13   F: -2393.021161618939459   dF: +1.030e-05   |Residual|: 4.929e-04   |deigs|: 2.194e-04  t[s]:   5063.92
	Linear fluid (dielectric constant: 78.4, screening length: 5.74355 Bohr) occupying 0.714336 of unit cell:	Completed after 12 iterations at t[s]:   5065.95
	FillingsUpdate:  mu: -0.171057226  nElectrons: 536.000000
	Linear fluid (dielectric constant: 78.4, screening length: 5.74355 Bohr) occupying 0.714417 of unit cell:	Completed after 5 iterations at t[s]:   5160.54
SCF: Cycle: 14   F: -2393.021173444824399   dF: -1.183e-05   |Residual|: 1.896e-04   |deigs|: 1.143e-04  t[s]:   5162.51
	Linear fluid (dielectric constant: 78.4, screening length: 5.74355 Bohr) occupying 0.714363 of unit cell:	Completed after 3 iterations at t[s]:   5163.59
	FillingsUpdate:  mu: -0.171111211  nElectrons: 536.000000
	Linear fluid (dielectric constant: 78.4, screening length: 5.74355 Bohr) occupying 0.714425 of unit cell:	Completed after 4 iterations at t[s]:   5272.27
SCF: Cycle: 15   F: -2393.021173911653023   dF: -4.668e-07   |Residual|: 1.870e-04   |deigs|: 5.899e-05  t[s]:   5274.10
	Linear fluid (dielectric constant: 78.4, screening length: 5.74355 Bohr) occupying 0.714380 of unit cell:	Completed after 2 iterations at t[s]:   5275.10
	FillingsUpdate:  mu: -0.171031059  nElectrons: 536.000000
	Linear fluid (dielectric constant: 78.4, screening length: 5.74355 Bohr) occupying 0.714421 of unit cell:	Completed after 8 iterations at t[s]:   5390.03
SCF: Cycle: 16   F: -2393.021170663148951   dF: +3.249e-06   |Residual|: 3.052e-04   |deigs|: 8.456e-05  t[s]:   5392.22
	Linear fluid (dielectric constant: 78.4, screening length: 5.74355 Bohr) occupying 0.714403 of unit cell:	Completed after 8 iterations at t[s]:   5393.94
	FillingsUpdate:  mu: -0.171006281  nElectrons: 536.000000
	Linear fluid (dielectric constant: 78.4, screening length: 5.74355 Bohr) occupying 0.714422 of unit cell:	Completed after 7 iterations at t[s]:   5509.84
SCF: Cycle: 17   F: -2393.021171173614221   dF: -5.105e-07   |Residual|: 2.656e-04   |deigs|: 3.971e-05  t[s]:   5511.98
	Linear fluid (dielectric constant: 78.4, screening length: 5.74355 Bohr) occupying 0.714425 of unit cell:	Completed after 7 iterations at t[s]:   5513.62
	FillingsUpdate:  mu: -0.171004994  nElectrons: 536.000000
	Linear fluid (dielectric constant: 78.4, screening length: 5.74355 Bohr) occupying 0.714425 of unit cell:	Completed after 5 iterations at t[s]:   5631.69
SCF: Cycle: 18   F: -2393.021171664952362   dF: -4.913e-07   |Residual|: 2.413e-04   |deigs|: 1.111e-05  t[s]:   5633.68
	Linear fluid (dielectric constant: 78.4, screening length: 5.74355 Bohr) occupying 0.714439 of unit cell:	Completed after 7 iterations at t[s]:   5635.19
	FillingsUpdate:  mu: -0.170988279  nElectrons: 536.000000
	Linear fluid (dielectric constant: 78.4, screening length: 5.74355 Bohr) occupying 0.714425 of unit cell:	Completed after 4 iterations at t[s]:   5753.39
SCF: Cycle: 19   F: -2393.021172497066800   dF: -8.321e-07   |Residual|: 2.028e-04   |deigs|: 1.783e-05  t[s]:   5755.39
	Linear fluid (dielectric constant: 78.4, screening length: 5.74355 Bohr) occupying 0.714443 of unit cell:	Completed after 6 iterations at t[s]:   5756.96
	FillingsUpdate:  mu: -0.171010687  nElectrons: 536.000000
	Linear fluid (dielectric constant: 78.4, screening length: 5.74355 Bohr) occupying 0.714427 of unit cell:	Completed after 3 iterations at t[s]:   5866.23
SCF: Cycle: 20   F: -2393.021172862443109   dF: -3.654e-07   |Residual|: 1.978e-04   |deigs|: 2.289e-05  t[s]:   5868.22
	Linear fluid (dielectric constant: 78.4, screening length: 5.74355 Bohr) occupying 0.714441 of unit cell:	Completed after 3 iterations at t[s]:   5869.37
	FillingsUpdate:  mu: -0.171065394  nElectrons: 536.000000
	Linear fluid (dielectric constant: 78.4, screening length: 5.74355 Bohr) occupying 0.714431 of unit cell:	Completed after 4 iterations at t[s]:   5987.32
SCF: Cycle: 21   F: -2393.021173691306103   dF: -8.289e-07   |Residual|: 1.371e-04   |deigs|: 5.834e-05  t[s]:   5989.11
	Linear fluid (dielectric constant: 78.4, screening length: 5.74355 Bohr) occupying 0.714442 of unit cell:	Completed after 3 iterations at t[s]:   5990.17
	FillingsUpdate:  mu: -0.170956279  nElectrons: 536.000000
	Linear fluid (dielectric constant: 78.4, screening length: 5.74355 Bohr) occupying 0.714422 of unit cell:	Completed after 8 iterations at t[s]:   6125.74
SCF: Cycle: 22   F: -2393.021171391458211   dF: +2.300e-06   |Residual|: 2.398e-04   |deigs|: 1.127e-04  t[s]:   6127.35
	Linear fluid (dielectric constant: 78.4, screening length: 5.74355 Bohr) occupying 0.714441 of unit cell:	Completed after 7 iterations at t[s]:   6128.84
	FillingsUpdate:  mu: -0.170992472  nElectrons: 536.000000
	Linear fluid (dielectric constant: 78.4, screening length: 5.74355 Bohr) occupying 0.714426 of unit cell:	Completed after 4 iterations at t[s]:   6213.05
SCF: Cycle: 23   F: -2393.021173091934088   dF: -1.700e-06   |Residual|: 1.569e-04   |deigs|: 3.811e-05  t[s]:   6214.86
	Linear fluid (dielectric constant: 78.4, screening length: 5.74355 Bohr) occupying 0.714443 of unit cell:	Completed after 5 iterations at t[s]:   6216.08
	FillingsUpdate:  mu: -0.171035238  nElectrons: 536.000000
	Linear fluid (dielectric constant: 78.4, screening length: 5.74355 Bohr) occupying 0.714429 of unit cell:	Completed after 2 iterations at t[s]:   6313.70
SCF: Cycle: 24   F: -2393.021173581613766   dF: -4.897e-07   |Residual|: 1.427e-04   |deigs|: 4.408e-05  t[s]:   6316.36
	Linear fluid (dielectric constant: 78.4, screening length: 5.74355 Bohr) occupying 0.714442 of unit cell:	Completed after 3 iterations at t[s]:   6317.75
	FillingsUpdate:  mu: -0.171014859  nElectrons: 536.000000
	Linear fluid (dielectric constant: 78.4, screening length: 5.74355 Bohr) occupying 0.714427 of unit cell:	Completed after 1 iterations at t[s]:   6415.49
SCF: Cycle: 25   F: -2393.021174344187784   dF: -7.626e-07   |Residual|: 7.408e-05   |deigs|: 2.333e-05  t[s]:   6417.37
	Linear fluid (dielectric constant: 78.4, screening length: 5.74355 Bohr) occupying 0.714443 of unit cell:	Completed after 0 iterations at t[s]:   6417.99
	FillingsUpdate:  mu: -0.171038364  nElectrons: 536.000000
	Linear fluid (dielectric constant: 78.4, screening length: 5.74355 Bohr) occupying 0.714428 of unit cell:	Completed after 2 iterations at t[s]:   6528.68
SCF: Cycle: 26   F: -2393.021174269176299   dF: +7.501e-08   |Residual|: 7.223e-05   |deigs|: 2.477e-05  t[s]:   6530.79
	Linear fluid (dielectric constant: 78.4, screening length: 5.74355 Bohr) occupying 0.714440 of unit cell:	Completed after 0 iterations at t[s]:   6531.56
	FillingsUpdate:  mu: -0.171025120  nElectrons: 536.000000
	Linear fluid (dielectric constant: 78.4, screening length: 5.74355 Bohr) occupying 0.714428 of unit cell:	Completed after 5 iterations at t[s]:   6652.29
SCF: Cycle: 27   F: -2393.021172986642796   dF: +1.283e-06   |Residual|: 2.287e-04   |deigs|: 3.078e-05  t[s]:   6654.53
	Linear fluid (dielectric constant: 78.4, screening length: 5.74355 Bohr) occupying 0.714441 of unit cell:	Completed after 4 iterations at t[s]:   6655.91
	FillingsUpdate:  mu: -0.171023913  nElectrons: 536.000000
	Linear fluid (dielectric constant: 78.4, screening length: 5.74355 Bohr) occupying 0.714427 of unit cell:	Completed after 0 iterations at t[s]:   6767.18
SCF: Cycle: 28   F: -2393.021174396825700   dF: -1.410e-06   |Residual|: 7.051e-05   |deigs|: 1.690e-05  t[s]:   6769.38
	Linear fluid (dielectric constant: 78.4, screening length: 5.74355 Bohr) occupying 0.714441 of unit cell:	Completed after 0 iterations at t[s]:   6770.08
	FillingsUpdate:  mu: -0.171027329  nElectrons: 536.000000
	Linear fluid (dielectric constant: 78.4, screening length: 5.74355 Bohr) occupying 0.714427 of unit cell:	Completed after 0 iterations at t[s]:   6869.32
SCF: Cycle: 29   F: -2393.021174395177695   dF: +1.648e-09   |Residual|: 4.566e-05   |deigs|: 5.291e-06  t[s]:   6871.73
	Linear fluid (dielectric constant: 78.4, screening length: 5.74355 Bohr) occupying 0.714440 of unit cell:	Completed after 0 iterations at t[s]:   6872.47
	FillingsUpdate:  mu: -0.171027454  nElectrons: 536.000000
	Linear fluid (dielectric constant: 78.4, screening length: 5.74355 Bohr) occupying 0.714427 of unit cell:	Completed after 0 iterations at t[s]:   6988.72
SCF: Cycle: 30   F: -2393.021174394564696   dF: +6.130e-10   |Residual|: 4.685e-05   |deigs|: 1.043e-05  t[s]:   6991.30
	Linear fluid (dielectric constant: 78.4, screening length: 5.74355 Bohr) occupying 0.714438 of unit cell:	Completed after 0 iterations at t[s]:   6992.09
	FillingsUpdate:  mu: -0.171027411  nElectrons: 536.000000
	Linear fluid (dielectric constant: 78.4, screening length: 5.74355 Bohr) occupying 0.714427 of unit cell:	Completed after 0 iterations at t[s]:   7094.13
SCF: Cycle: 31   F: -2393.021174395080834   dF: -5.161e-10   |Residual|: 4.814e-05   |deigs|: 2.621e-06  t[s]:   7096.04
	Linear fluid (dielectric constant: 78.4, screening length: 5.74355 Bohr) occupying 0.714430 of unit cell:	Completed after 0 iterations at t[s]:   7096.70
	FillingsUpdate:  mu: -0.171026497  nElectrons: 536.000000
	Linear fluid (dielectric constant: 78.4, screening length: 5.74355 Bohr) occupying 0.714426 of unit cell:	Completed after 0 iterations at t[s]:   7198.55
SCF: Cycle: 32   F: -2393.021174400611017   dF: -5.530e-09   |Residual|: 4.751e-05   |deigs|: 5.693e-06  t[s]:   7200.95
SCF: Converged (|Delta E|<1.000000e-08 for 2 iters).

Single-point solvation energy estimate, DeltaF = -0.001343271209862

# Ionic positions in lattice coordinates:
ion Bi   0.999999999999999   0.939952929148110   0.599468214843503 0
ion Bi   0.499999999999999   0.939952929148110   0.599468214843503 0
ion Bi   0.999999999999999   0.060039662253448   0.400537654713476 0
ion Bi   0.499999999999999   0.060039662253448   0.400537654713476 0
ion Bi   0.249999999999999   0.793651967120980   0.357877739782087 0
ion Bi   0.749999999999999   0.793651967120980   0.357877739782087 0
ion Bi   0.249999999999999   0.337712064018673   0.441646416483154 0
ion Bi   0.749999999999999   0.337712064018673   0.441646416483154 0
ion Bi  -0.000000000000001   0.164497901882672   0.570189863254962 0
ion Bi   0.499999999999999   0.164497901882672   0.570189863254962 0
ion Bi   0.999999999999999   0.614530870643316   0.487923704599849 0
ion Bi   0.499999999999999   0.614530870643316   0.487923704599849 0
ion Bi  -0.000000000000001   0.835510657716601   0.429810547174943 0
ion Bi   0.499999999999999   0.835510657716601   0.429810547174943 0
ion Bi  -0.000000000000001   0.521615209196053   0.311339701431008 0
ion Bi   0.499999999999999   0.521615209196053   0.311339701431008 0
ion Bi   0.249999999999999   0.112234484621139   0.469842323763827 0
ion Bi   0.749999999999999   0.112234484621139   0.469842323763827 0
ion Bi   0.249999999999999   0.662294193014789   0.558349892638246 0
ion Bi   0.749999999999999   0.662294193014789   0.558349892638246 0
ion Bi  -0.000000000000001   0.385476998628837   0.512069346265678 0
ion Bi   0.499999999999999   0.385476998628837   0.512069346265678 0
ion Bi   0.249999999999999   0.887770727789872   0.530152890959039 0
ion Bi   0.749999999999999   0.887770727789872   0.530152890959039 0
ion Bi   0.249999999999999   0.206349434629771   0.642126227851495 0
ion Bi   0.749999999999999   0.206349434629771   0.642126227851495 0
ion Bi   0.249999999999999   0.430075001182896   0.616956692632196 0
ion Bi   0.749999999999999   0.430075001182896   0.616956692632196 0
ion Bi   0.249999999999999   0.569926136772988   0.383043645545418 0
ion Bi   0.749999999999999   0.569926136772988   0.383043645545418 0
ion Bi  -0.000000000000001   0.478377046960443   0.688665033035926 0
ion Bi   0.499999999999999   0.478377046960443   0.688665033035926 0
ion I   0.999999999999999   0.267410926663241   0.734248322345265 0
ion I   0.499999999999999   0.267410926663241   0.734248322345265 0
ion I   0.999999999999999   0.732573026622131   0.265750068782304 0
ion I   0.499999999999999   0.732573026622131   0.265750068782304 0
ion I  -0.000000000000001   0.294786311208194   0.342139648350422 0
ion I   0.499999999999999   0.294786311208194   0.342139648350422 0
ion I  -0.000000000000001   0.705214449925824   0.657862065547195 0
ion I   0.499999999999999   0.705214449925824   0.657862065547195 0


# Forces in Lattice coordinates:
force Bi   0.000000000000000   0.014021105109200   0.123245995283845 0
force Bi   0.000000000000000   0.014021105109200   0.123245995283845 0
force Bi  -0.000000000000000  -0.013712738269438  -0.124742667413514 0
force Bi   0.000000000000000  -0.013712738269438  -0.124742667413514 0
force Bi   0.000000000000000   0.005654718103987  -0.066032368973712 0
force Bi   0.000000000000000   0.005654718103959  -0.066032368973710 0
force Bi   0.000000000000000  -0.007454984816266  -0.098424107747126 0
force Bi   0.000000000000000  -0.007454984816266  -0.098424107747126 0
force Bi   0.000000000000000  -0.007828561107216   0.001945394592937 0
force Bi  -0.000000000000000  -0.007828561107216   0.001945394592937 0
force Bi  -0.000000000000000  -0.005091886689480  -0.027614944105185 0
force Bi   0.000000000000000  -0.005091886689480  -0.027614944105185 0
force Bi   0.000000000000000   0.007477121099746  -0.001447681787722 0
force Bi   0.000000000000000   0.007477121099746  -0.001447681787949 0
force Bi   0.000000000000000  -0.023200333408702  -0.028969929880333 0
force Bi   0.000000000000000  -0.023200333408702  -0.028969929880333 0
force Bi   0.000000000000000   0.012300281574146   0.031196211678120 0
force Bi   0.000000000000000   0.012300281574144   0.031196211678234 0
force Bi   0.000000000000000   0.007403711929558   0.098109963260343 0
force Bi   0.000000000000000   0.007403711929558   0.098109963259891 0
force Bi   0.000000000000000   0.005055350474794   0.028533269455453 0
force Bi   0.000000000000000   0.005055350474794   0.028533269455454 0
force Bi   0.000000000000000  -0.012146794082946  -0.029861318841558 0
force Bi   0.000000000000000  -0.012146794082945  -0.029861318841559 0
force Bi   0.000000000000000  -0.005661064302421   0.065402920694549 0
force Bi   0.000000000000000  -0.005661064302450   0.065402920694547 0
force Bi   0.000000000000000  -0.013129681695331  -0.012589888499928 0
force Bi   0.000000000000000  -0.013129681695331  -0.012589888499928 0
force Bi   0.000000000000000   0.013107900550212   0.013108553177890 0
force Bi   0.000000000000000   0.013107900550212   0.013108553178344 0
force Bi   0.000000000000000   0.023269094039783   0.028299816896025 0
force Bi  -0.000000000000000   0.023269094039783   0.028299816896025 0
force I   0.000000000000000  -0.022401029427937   0.089924278655570 0
force I  -0.000000000000000  -0.022401029427937   0.089924278655570 0
force I   0.000000000000000   0.022529438338542  -0.089794258314278 0
force I  -0.000000000000000   0.022529438338542  -0.089794258314278 0
force I   0.000000000000000  -0.007451921878872  -0.036935569177035 0
force I   0.000000000000000  -0.007451921878872  -0.036935569177035 0
force I   0.000000000000000   0.007287702329734   0.036933888056548 0
force I   0.000000000000000   0.007287702329734   0.036933888056548 0

# Energy components:
   A_diel =       -0.0056642364155578
   Eewald =    22884.2144501845650666
       EH =    24977.9525290541678260
     Eloc =   -50870.0699789877180592
      Enl =      756.6779119062230166
      Exc =    -1227.2939928556813811
 Exc_core =      834.0647097076084719
       KE =      251.4766849495684369
-------------------------------------
     Etot =    -2392.9833502776809837
       TS =        0.0378241229302176
-------------------------------------
        F =    -2393.0211744006110166

IonicMinimize: Iter:   0  F: -2393.021174400611017  |grad|_K:  0.000e+00  t[s]:   7214.72
IonicMinimize: Converged (|grad|_K<1.000000e-04).

#--- Lowdin population analysis ---
# oxidation-state Bi +0.137 +0.137 +0.137 +0.137 +0.227 +0.227 +0.176 +0.176 -0.035 -0.035 +0.016 +0.016 -0.035 -0.035 +0.344 +0.344 +0.060 +0.060 +0.176 +0.176 +0.016 +0.016 +0.060 +0.060 +0.227 +0.227 +0.022 +0.022 +0.022 +0.022 +0.344 +0.344
# oxidation-state I -0.319 -0.319 -0.319 -0.319 -0.327 -0.327 -0.327 -0.327


Dumping 'NbTe2.fillings' ... done
Dumping 'NbTe2.wfns' ... done
Dumping 'NbTe2.fluidState' ... done
Dumping 'NbTe2.eigenvals' ... done
End date and time: Sun Jul  5 10:16:13 2020  (Duration: 0-2:00:30.87)
Done!
